ITEM: TIMESTEP
0
ITEM: NUMBER OF ATOMS
1000
ITEM: BOX BOUNDS pp pp pp
0.0000000000000000e+00 1.0000000000000000e+02
0.0000000000000000e+00 1.0000000000000000e+02
0.0000000000000000e+00 1.0000000000000000e+02
ITEM: ATOMS id type c_test1
1 1 0
2 1 0.01
3 1 0.02
4 1 0.03
5 1 0.04
6 1 0.05
7 1 0.06
8 1 0.07
9 1 0.08
10 1 0.09
11 1 0.1
12 1 0.11
13 1 0.12
14 1 0.13
15 1 0.14
16 1 0.15
17 1 0.16
18 1 0.17
19 1 0.18
20 1 0.19
21 1 0.2
22 1 0.21
23 1 0.22
24 1 0.23
25 1 0.24
26 1 0.25
27 1 0.26
28 1 0.27
29 1 0.28
30 1 0.29
31 1 0.3
32 1 0.31
33 1 0.32
34 1 0.33
35 1 0.34
36 1 0.35
37 1 0.36
38 1 0.37
39 1 0.38
40 1 0.39
41 1 0.4
42 1 0.41
43 1 0.42
44 1 0.43
45 1 0.44
46 1 0.45
47 1 0.46
48 1 0.47
49 1 0.48
50 1 0.49
51 1 0.5
52 1 0.51
53 1 0.52
54 1 0.53
55 1 0.54
56 1 0.55
57 1 0.56
58 1 0.57
59 1 0.58
60 1 0.59
61 1 0.6
62 1 0.61
63 1 0.62
64 1 0.63
65 1 0.64
66 1 0.65
67 1 0.66
68 1 0.67
69 1 0.68
70 1 0.69
71 1 0.7
72 1 0.71
73 1 0.72
74 1 0.73
75 1 0.74
76 1 0.75
77 1 0.76
78 1 0.77
79 1 0.78
80 1 0.79
81 1 0.8
82 1 0.81
83 1 0.82
84 1 0.83
85 1 0.84
86 1 0.85
87 1 0.86
88 1 0.87
89 1 0.88
90 1 0.89
91 1 0.9
92 1 0.91
93 1 0.92
94 1 0.93
95 1 0.94
96 1 0.95
97 1 0.96
98 1 0.97
99 1 0.98
100 1 0.99
101 1 1
102 1 1.01
103 1 1.02
104 1 1.03
105 1 1.04
106 1 1.05
107 1 1.06
108 1 1.07
109 1 1.08
110 1 1.09
111 1 1.1
112 1 1.11
113 1 1.12
114 1 1.13
115 1 1.14
116 1 1.15
117 1 1.16
118 1 1.17
119 1 1.18
120 1 1.19
121 1 1.2
122 1 1.21
123 1 1.22
124 1 1.23
125 1 1.24
126 1 1.25
127 1 1.26
128 1 1.27
129 1 1.28
130 1 1.29
131 1 1.3
132 1 1.31
133 1 1.32
134 1 1.33
135 1 1.34
136 1 1.35
137 1 1.36
138 1 1.37
139 1 1.38
140 1 1.39
141 1 1.4
142 1 1.41
143 1 1.42
144 1 1.43
145 1 1.44
146 1 1.45
147 1 1.46
148 1 1.47
149 1 1.48
150 1 1.49
151 1 1.5
152 1 1.51
153 1 1.52
154 1 1.53
155 1 1.54
156 1 1.55
157 1 1.56
158 1 1.57
159 1 1.58
160 1 1.59
161 1 1.6
162 1 1.61
163 1 1.62
164 1 1.63
165 1 1.64
166 1 1.65
167 1 1.66
168 1 1.67
169 1 1.68
170 1 1.69
171 1 1.7
172 1 1.71
173 1 1.72
174 1 1.73
175 1 1.74
176 1 1.75
177 1 1.76
178 1 1.77
179 1 1.78
180 1 1.79
181 1 1.8
182 1 1.81
183 1 1.82
184 1 1.83
185 1 1.84
186 1 1.85
187 1 1.86
188 1 1.87
189 1 1.88
190 1 1.89
191 1 1.9
192 1 1.91
193 1 1.92
194 1 1.93
195 1 1.94
196 1 1.95
197 1 1.96
198 1 1.97
199 1 1.98
200 1 1.99
201 1 2
202 1 2.01
203 1 2.02
204 1 2.03
205 1 2.04
206 1 2.05
207 1 2.06
208 1 2.07
209 1 2.08
210 1 2.09
211 1 2.1
212 1 2.11
213 1 2.12
214 1 2.13
215 1 2.14
216 1 2.15
217 1 2.16
218 1 2.17
219 1 2.18
220 1 2.19
221 1 2.2
222 1 2.21
223 1 2.22
224 1 2.23
225 1 2.24
226 1 2.25
227 1 2.26
228 1 2.27
229 1 2.28
230 1 2.29
231 1 2.3
232 1 2.31
233 1 2.32
234 1 2.33
235 1 2.34
236 1 2.35
237 1 2.36
238 1 2.37
239 1 2.38
240 1 2.39
241 1 2.4
242 1 2.41
243 1 2.42
244 1 2.43
245 1 2.44
246 1 2.45
247 1 2.46
248 1 2.47
249 1 2.48
250 1 2.49
251 1 2.5
252 1 2.51
253 1 2.52
254 1 2.53
255 1 2.54
256 1 2.55
257 1 2.56
258 1 2.57
259 1 2.58
260 1 2.59
261 1 2.6
262 1 2.61
263 1 2.62
264 1 2.63
265 1 2.64
266 1 2.65
267 1 2.66
268 1 2.67
269 1 2.68
270 1 2.69
271 1 2.7
272 1 2.71
273 1 2.72
274 1 2.73
275 1 2.74
276 1 2.75
277 1 2.76
278 1 2.77
279 1 2.78
280 1 2.79
281 1 2.8
282 1 2.81
283 1 2.82
284 1 2.83
285 1 2.84
286 1 2.85
287 1 2.86
288 1 2.87
289 1 2.88
290 1 2.89
291 1 2.9
292 1 2.91
293 1 2.92
294 1 2.93
295 1 2.94
296 1 2.95
297 1 2.96
298 1 2.97
299 1 2.98
300 1 2.99
301 1 3
302 1 3.01
303 1 3.02
304 1 3.03
305 1 3.04
306 1 3.05
307 1 3.06
308 1 3.07
309 1 3.08
310 1 3.09
311 1 3.1
312 1 3.11
313 1 3.12
314 1 3.13
315 1 3.14
316 1 3.15
317 1 3.16
318 1 3.17
319 1 3.18
320 1 3.19
321 1 3.2
322 1 3.21
323 1 3.22
324 1 3.23
325 1 3.24
326 1 3.25
327 1 3.26
328 1 3.27
329 1 3.28
330 1 3.29
331 1 3.3
332 1 3.31
333 1 3.32
334 1 3.33
335 1 3.34
336 1 3.35
337 1 3.36
338 1 3.37
339 1 3.38
340 1 3.39
341 1 3.4
342 1 3.41
343 1 3.42
344 1 3.43
345 1 3.44
346 1 3.45
347 1 3.46
348 1 3.47
349 1 3.48
350 1 3.49
351 1 3.5
352 1 3.51
353 1 3.52
354 1 3.53
355 1 3.54
356 1 3.55
357 1 3.56
358 1 3.57
359 1 3.58
360 1 3.59
361 1 3.6
362 1 3.61
363 1 3.62
364 1 3.63
365 1 3.64
366 1 3.65
367 1 3.66
368 1 3.67
369 1 3.68
370 1 3.69
371 1 3.7
372 1 3.71
373 1 3.72
374 1 3.73
375 1 3.74
376 1 3.75
377 1 3.76
378 1 3.77
379 1 3.78
380 1 3.79
381 1 3.8
382 1 3.81
383 1 3.82
384 1 3.83
385 1 3.84
386 1 3.85
387 1 3.86
388 1 3.87
389 1 3.88
390 1 3.89
391 1 3.9
392 1 3.91
393 1 3.92
394 1 3.93
395 1 3.94
396 1 3.95
397 1 3.96
398 1 3.97
399 1 3.98
400 1 3.99
401 1 4
402 1 4.01
403 1 4.02
404 1 4.03
405 1 4.04
406 1 4.05
407 1 4.06
408 1 4.07
409 1 4.08
410 1 4.09
411 1 4.1
412 1 4.11
413 1 4.12
414 1 4.13
415 1 4.14
416 1 4.15
417 1 4.16
418 1 4.17
419 1 4.18
420 1 4.19
421 1 4.2
422 1 4.21
423 1 4.22
424 1 4.23
425 1 4.24
426 1 4.25
427 1 4.26
428 1 4.27
429 1 4.28
430 1 4.29
431 1 4.3
432 1 4.31
433 1 4.32
434 1 4.33
435 1 4.34
436 1 4.35
437 1 4.36
438 1 4.37
439 1 4.38
440 1 4.39
441 1 4.4
442 1 4.41
443 1 4.42
444 1 4.43
445 1 4.44
446 1 4.45
447 1 4.46
448 1 4.47
449 1 4.48
450 1 4.49
451 1 4.5
452 1 4.51
453 1 4.52
454 1 4.53
455 1 4.54
456 1 4.55
457 1 4.56
458 1 4.57
459 1 4.58
460 1 4.59
461 1 4.6
462 1 4.61
463 1 4.62
464 1 4.63
465 1 4.64
466 1 4.65
467 1 4.66
468 1 4.67
469 1 4.68
470 1 4.69
471 1 4.7
472 1 4.71
473 1 4.72
474 1 4.73
475 1 4.74
476 1 4.75
477 1 4.76
478 1 4.77
479 1 4.78
480 1 4.79
481 1 4.8
482 1 4.81
483 1 4.82
484 1 4.83
485 1 4.84
486 1 4.85
487 1 4.86
488 1 4.87
489 1 4.88
490 1 4.89
491 1 4.9
492 1 4.91
493 1 4.92
494 1 4.93
495 1 4.94
496 1 4.95
497 1 4.96
498 1 4.97
499 1 4.98
500 1 4.99
501 1 5
502 1 5.01
503 1 5.02
504 1 5.03
505 1 5.04
506 1 5.05
507 1 5.06
508 1 5.07
509 1 5.08
510 1 5.09
511 1 5.1
512 1 5.11
513 1 5.12
514 1 5.13
515 1 5.14
516 1 5.15
517 1 5.16
518 1 5.17
519 1 5.18
520 1 5.19
521 1 5.2
522 1 5.21
523 1 5.22
524 1 5.23
525 1 5.24
526 1 5.25
527 1 5.26
528 1 5.27
529 1 5.28
530 1 5.29
531 1 5.3
532 1 5.31
533 1 5.32
534 1 5.33
535 1 5.34
536 1 5.35
537 1 5.36
538 1 5.37
539 1 5.38
540 1 5.39
541 1 5.4
542 1 5.41
543 1 5.42
544 1 5.43
545 1 5.44
546 1 5.45
547 1 5.46
548 1 5.47
549 1 5.48
550 1 5.49
551 1 5.5
552 1 5.51
553 1 5.52
554 1 5.53
555 1 5.54
556 1 5.55
557 1 5.56
558 1 5.57
559 1 5.58
560 1 5.59
561 1 5.6
562 1 5.61
563 1 5.62
564 1 5.63
565 1 5.64
566 1 5.65
567 1 5.66
568 1 5.67
569 1 5.68
570 1 5.69
571 1 5.7
572 1 5.71
573 1 5.72
574 1 5.73
575 1 5.74
576 1 5.75
577 1 5.76
578 1 5.77
579 1 5.78
580 1 5.79
581 1 5.8
582 1 5.81
583 1 5.82
584 1 5.83
585 1 5.84
586 1 5.85
587 1 5.86
588 1 5.87
589 1 5.88
590 1 5.89
591 1 5.9
592 1 5.91
593 1 5.92
594 1 5.93
595 1 5.94
596 1 5.95
597 1 5.96
598 1 5.97
599 1 5.98
600 1 5.99
601 1 6
602 1 6.01
603 1 6.02
604 1 6.03
605 1 6.04
606 1 6.05
607 1 6.06
608 1 6.07
609 1 6.08
610 1 6.09
611 1 6.1
612 1 6.11
613 1 6.12
614 1 6.13
615 1 6.14
616 1 6.15
617 1 6.16
618 1 6.17
619 1 6.18
620 1 6.19
621 1 6.2
622 1 6.21
623 1 6.22
624 1 6.23
625 1 6.24
626 1 6.25
627 1 6.26
628 1 6.27
629 1 6.28
630 1 6.29
631 1 6.3
632 1 6.31
633 1 6.32
634 1 6.33
635 1 6.34
636 1 6.35
637 1 6.36
638 1 6.37
639 1 6.38
640 1 6.39
641 1 6.4
642 1 6.41
643 1 6.42
644 1 6.43
645 1 6.44
646 1 6.45
647 1 6.46
648 1 6.47
649 1 6.48
650 1 6.49
651 1 6.5
652 1 6.51
653 1 6.52
654 1 6.53
655 1 6.54
656 1 6.55
657 1 6.56
658 1 6.57
659 1 6.58
660 1 6.59
661 1 6.6
662 1 6.61
663 1 6.62
664 1 6.63
665 1 6.64
666 1 6.65
667 1 6.66
668 1 6.67
669 1 6.68
670 1 6.69
671 1 6.7
672 1 6.71
673 1 6.72
674 1 6.73
675 1 6.74
676 1 6.75
677 1 6.76
678 1 6.77
679 1 6.78
680 1 6.79
681 1 6.8
682 1 6.81
683 1 6.82
684 1 6.83
685 1 6.84
686 1 6.85
687 1 6.86
688 1 6.87
689 1 6.88
690 1 6.89
691 1 6.9
692 1 6.91
693 1 6.92
694 1 6.93
695 1 6.94
696 1 6.95
697 1 6.96
698 1 6.97
699 1 6.98
700 1 6.99
701 1 7
702 1 7.01
703 1 7.02
704 1 7.03
705 1 7.04
706 1 7.05
707 1 7.06
708 1 7.07
709 1 7.08
710 1 7.09
711 1 7.1
712 1 7.11
713 1 7.12
714 1 7.13
715 1 7.14
716 1 7.15
717 1 7.16
718 1 7.17
719 1 7.18
720 1 7.19
721 1 7.2
722 1 7.21
723 1 7.22
724 1 7.23
725 1 7.24
726 1 7.25
727 1 7.26
728 1 7.27
729 1 7.28
730 1 7.29
731 1 7.3
732 1 7.31
733 1 7.32
734 1 7.33
735 1 7.34
736 1 7.35
737 1 7.36
738 1 7.37
739 1 7.38
740 1 7.39
741 1 7.4
742 1 7.41
743 1 7.42
744 1 7.43
745 1 7.44
746 1 7.45
747 1 7.46
748 1 7.47
749 1 7.48
750 1 7.49
751 1 7.5
752 1 7.51
753 1 7.52
754 1 7.53
755 1 7.54
756 1 7.55
757 1 7.56
758 1 7.57
759 1 7.58
760 1 7.59
761 1 7.6
762 1 7.61
763 1 7.62
764 1 7.63
765 1 7.64
766 1 7.65
767 1 7.66
768 1 7.67
769 1 7.68
770 1 7.69
771 1 7.7
772 1 7.71
773 1 7.72
774 1 7.73
775 1 7.74
776 1 7.75
777 1 7.76
778 1 7.77
779 1 7.78
780 1 7.79
781 1 7.8
782 1 7.81
783 1 7.82
784 1 7.83
785 1 7.84
786 1 7.85
787 1 7.86
788 1 7.87
789 1 7.88
790 1 7.89
791 1 7.9
792 1 7.91
793 1 7.92
794 1 7.93
795 1 7.94
796 1 7.95
797 1 7.96
798 1 7.97
799 1 7.98
800 1 7.99
801 1 8
802 1 8.01
803 1 8.02
804 1 8.03
805 1 8.04
806 1 8.05
807 1 8.06
808 1 8.07
809 1 8.08
810 1 8.09
811 1 8.1
812 1 8.11
813 1 8.12
814 1 8.13
815 1 8.14
816 1 8.15
817 1 8.16
818 1 8.17
819 1 8.18
820 1 8.19
821 1 8.2
822 1 8.21
823 1 8.22
824 1 8.23
825 1 8.24
826 1 8.25
827 1 8.26
828 1 8.27
829 1 8.28
830 1 8.29
831 1 8.3
832 1 8.31
833 1 8.32
834 1 8.33
835 1 8.34
836 1 8.35
837 1 8.36
838 1 8.37
839 1 8.38
840 1 8.39
841 1 8.4
842 1 8.41
843 1 8.42
844 1 8.43
845 1 8.44
846 1 8.45
847 1 8.46
848 1 8.47
849 1 8.48
850 1 8.49
851 1 8.5
852 1 8.51
853 1 8.52
854 1 8.53
855 1 8.54
856 1 8.55
857 1 8.56
858 1 8.57
859 1 8.58
860 1 8.59
861 1 8.6
862 1 8.61
863 1 8.62
864 1 8.63
865 1 8.64
866 1 8.65
867 1 8.66
868 1 8.67
869 1 8.68
870 1 8.69
871 1 8.7
872 1 8.71
873 1 8.72
874 1 8.73
875 1 8.74
876 1 8.75
877 1 8.76
878 1 8.77
879 1 8.78
880 1 8.79
881 1 8.8
882 1 8.81
883 1 8.82
884 1 8.83
885 1 8.84
886 1 8.85
887 1 8.86
888 1 8.87
889 1 8.88
890 1 8.89
891 1 8.9
892 1 8.91
893 1 8.92
894 1 8.93
895 1 8.94
896 1 8.95
897 1 8.96
898 1 8.97
899 1 8.98
900 1 8.99
901 1 9
902 1 9.01
903 1 9.02
904 1 9.03
905 1 9.04
906 1 9.05
907 1 9.06
908 1 9.07
909 1 9.08
910 1 9.09
911 1 9.1
912 1 9.11
913 1 9.12
914 1 9.13
915 1 9.14
916 1 9.15
917 1 9.16
918 1 9.17
919 1 9.18
920 1 9.19
921 1 9.2
922 1 9.21
923 1 9.22
924 1 9.23
925 1 9.24
926 1 9.25
927 1 9.26
928 1 9.27
929 1 9.28
930 1 9.29
931 1 9.3
932 1 9.31
933 1 9.32
934 1 9.33
935 1 9.34
936 1 9.35
937 1 9.36
938 1 9.37
939 1 9.38
940 1 9.39
941 1 9.4
942 1 9.41
943 1 9.42
944 1 9.43
945 1 9.44
946 1 9.45
947 1 9.46
948 1 9.47
949 1 9.48
950 1 9.49
951 1 9.5
952 1 9.51
953 1 9.52
954 1 9.53
955 1 9.54
956 1 9.55
957 1 9.56
958 1 9.57
959 1 9.58
960 1 9.59
961 1 9.6
962 1 9.61
963 1 9.62
964 1 9.63
965 1 9.64
966 1 9.65
967 1 9.66
968 1 9.67
969 1 9.68
970 1 9.69
971 1 9.7
972 1 9.71
973 1 9.72
974 1 9.73
975 1 9.74
976 1 9.75
977 1 9.76
978 1 9.77
979 1 9.78
980 1 9.79
981 1 9.8
982 1 9.81
983 1 9.82
984 1 9.83
985 1 9.84
986 1 9.85
987 1 9.86
988 1 9.87
989 1 9.88
990 1 9.89
991 1 9.9
992 1 9.91
993 1 9.92
994 1 9.93
995 1 9.94
996 1 9.95
997 1 9.96
998 1 9.97
999 1 9.98
1000 1 9.99
ITEM: TIMESTEP
1
ITEM: NUMBER OF ATOMS
1000
ITEM: BOX BOUNDS pp pp pp
0.0000000000000000e+00 1.0000000000000000e+02
0.0000000000000000e+00 1.0000000000000000e+02
0.0000000000000000e+00 1.0000000000000000e+02
ITEM: ATOMS id type c_test1
1 1 0
2 1 0.01
3 1 0.02
4 1 0.03
5 1 0.04
6 1 0.05
7 1 0.06
8 1 0.07
9 1 0.08
10 1 0.09
11 1 0.1
12 1 0.11
13 1 0.12
14 1 0.13
15 1 0.14
16 1 0.15
17 1 0.16
18 1 0.17
19 1 0.18
20 1 0.19
21 1 0.2
22 1 0.21
23 1 0.22
24 1 0.23
25 1 0.24
26 1 0.25
27 1 0.26
28 1 0.27
29 1 0.28
30 1 0.29
31 1 0.3
32 1 0.31
33 1 0.32
34 1 0.33
35 1 0.34
36 1 0.35
37 1 0.36
38 1 0.37
39 1 0.38
40 1 0.39
41 1 0.4
42 1 0.41
43 1 0.42
44 1 0.43
45 1 0.44
46 1 0.45
47 1 0.46
48 1 0.47
49 1 0.48
50 1 0.49
51 1 0.5
52 1 0.51
53 1 0.52
54 1 0.53
55 1 0.54
56 1 0.55
57 1 0.56
58 1 0.57
59 1 0.58
60 1 0.59
61 1 0.6
62 1 0.61
63 1 0.62
64 1 0.63
65 1 0.64
66 1 0.65
67 1 0.66
68 1 0.67
69 1 0.68
70 1 0.69
71 1 0.7
72 1 0.71
73 1 0.72
74 1 0.73
75 1 0.74
76 1 0.75
77 1 0.76
78 1 0.77
79 1 0.78
80 1 0.79
81 1 0.8
82 1 0.81
83 1 0.82
84 1 0.83
85 1 0.84
86 1 0.85
87 1 0.86
88 1 0.87
89 1 0.88
90 1 0.89
91 1 0.9
92 1 0.91
93 1 0.92
94 1 0.93
95 1 0.94
96 1 0.95
97 1 0.96
98 1 0.97
99 1 0.98
100 1 0.99
101 1 1
102 1 1.01
103 1 1.02
104 1 1.03
105 1 1.04
106 1 1.05
107 1 1.06
108 1 1.07
109 1 1.08
110 1 1.09
111 1 1.1
112 1 1.11
113 1 1.12
114 1 1.13
115 1 1.14
116 1 1.15
117 1 1.16
118 1 1.17
119 1 1.18
120 1 1.19
121 1 1.2
122 1 1.21
123 1 1.22
124 1 1.23
125 1 1.24
126 1 1.25
127 1 1.26
128 1 1.27
129 1 1.28
130 1 1.29
131 1 1.3
132 1 1.31
133 1 1.32
134 1 1.33
135 1 1.34
136 1 1.35
137 1 1.36
138 1 1.37
139 1 1.38
140 1 1.39
141 1 1.4
142 1 1.41
143 1 1.42
144 1 1.43
145 1 1.44
146 1 1.45
147 1 1.46
148 1 1.47
149 1 1.48
150 1 1.49
151 1 1.5
152 1 1.51
153 1 1.52
154 1 1.53
155 1 1.54
156 1 1.55
157 1 1.56
158 1 1.57
159 1 1.58
160 1 1.59
161 1 1.6
162 1 1.61
163 1 1.62
164 1 1.63
165 1 1.64
166 1 1.65
167 1 1.66
168 1 1.67
169 1 1.68
170 1 1.69
171 1 1.7
172 1 1.71
173 1 1.72
174 1 1.73
175 1 1.74
176 1 1.75
177 1 1.76
178 1 1.77
179 1 1.78
180 1 1.79
181 1 1.8
182 1 1.81
183 1 1.82
184 1 1.83
185 1 1.84
186 1 1.85
187 1 1.86
188 1 1.87
189 1 1.88
190 1 1.89
191 1 1.9
192 1 1.91
193 1 1.92
194 1 1.93
195 1 1.94
196 1 1.95
197 1 1.96
198 1 1.97
199 1 1.98
200 1 1.99
201 1 2
202 1 2.01
203 1 2.02
204 1 2.03
205 1 2.04
206 1 2.05
207 1 2.06
208 1 2.07
209 1 2.08
210 1 2.09
211 1 2.1
212 1 2.11
213 1 2.12
214 1 2.13
215 1 2.14
216 1 2.15
217 1 2.16
218 1 2.17
219 1 2.18
220 1 2.19
221 1 2.2
222 1 2.21
223 1 2.22
224 1 2.23
225 1 2.24
226 1 2.25
227 1 2.26
228 1 2.27
229 1 2.28
230 1 2.29
231 1 2.3
232 1 2.31
233 1 2.32
234 1 2.33
235 1 2.34
236 1 2.35
237 1 2.36
238 1 2.37
239 1 2.38
240 1 2.39
241 1 2.4
242 1 2.41
243 1 2.42
244 1 2.43
245 1 2.44
246 1 2.45
247 1 2.46
248 1 2.47
249 1 2.48
250 1 2.49
251 1 2.5
252 1 2.51
253 1 2.52
254 1 2.53
255 1 2.54
256 1 2.55
257 1 2.56
258 1 2.57
259 1 2.58
260 1 2.59
261 1 2.6
262 1 2.61
263 1 2.62
264 1 2.63
265 1 2.64
266 1 2.65
267 1 2.66
268 1 2.67
269 1 2.68
270 1 2.69
271 1 2.7
272 1 2.71
273 1 2.72
274 1 2.73
275 1 2.74
276 1 2.75
277 1 2.76
278 1 2.77
279 1 2.78
280 1 2.79
281 1 2.8
282 1 2.81
283 1 2.82
284 1 2.83
285 1 2.84
286 1 2.85
287 1 2.86
288 1 2.87
289 1 2.88
290 1 2.89
291 1 2.9
292 1 2.91
293 1 2.92
294 1 2.93
295 1 2.94
296 1 2.95
297 1 2.96
298 1 2.97
299 1 2.98
300 1 2.99
301 1 3
302 1 3.01
303 1 3.02
304 1 3.03
305 1 3.04
306 1 3.05
307 1 3.06
308 1 3.07
309 1 3.08
310 1 3.09
311 1 3.1
312 1 3.11
313 1 3.12
314 1 3.13
315 1 3.14
316 1 3.15
317 1 3.16
318 1 3.17
319 1 3.18
320 1 3.19
321 1 3.2
322 1 3.21
323 1 3.22
324 1 3.23
325 1 3.24
326 1 3.25
327 1 3.26
328 1 3.27
329 1 3.28
330 1 3.29
331 1 3.3
332 1 3.31
333 1 3.32
334 1 3.33
335 1 3.34
336 1 3.35
337 1 3.36
338 1 3.37
339 1 3.38
340 1 3.39
341 1 3.4
342 1 3.41
343 1 3.42
344 1 3.43
345 1 3.44
346 1 3.45
347 1 3.46
348 1 3.47
349 1 3.48
350 1 3.49
351 1 3.5
352 1 3.51
353 1 3.52
354 1 3.53
355 1 3.54
356 1 3.55
357 1 3.56
358 1 3.57
359 1 3.58
360 1 3.59
361 1 3.6
362 1 3.61
363 1 3.62
364 1 3.63
365 1 3.64
366 1 3.65
367 1 3.66
368 1 3.67
369 1 3.68
370 1 3.69
371 1 3.7
372 1 3.71
373 1 3.72
374 1 3.73
375 1 3.74
376 1 3.75
377 1 3.76
378 1 3.77
379 1 3.78
380 1 3.79
381 1 3.8
382 1 3.81
383 1 3.82
384 1 3.83
385 1 3.84
386 1 3.85
387 1 3.86
388 1 3.87
389 1 3.88
390 1 3.89
391 1 3.9
392 1 3.91
393 1 3.92
394 1 3.93
395 1 3.94
396 1 3.95
397 1 3.96
398 1 3.97
399 1 3.98
400 1 3.99
401 1 4
402 1 4.01
403 1 4.02
404 1 4.03
405 1 4.04
406 1 4.05
407 1 4.06
408 1 4.07
409 1 4.08
410 1 4.09
411 1 4.1
412 1 4.11
413 1 4.12
414 1 4.13
415 1 4.14
416 1 4.15
417 1 4.16
418 1 4.17
419 1 4.18
420 1 4.19
421 1 4.2
422 1 4.21
423 1 4.22
424 1 4.23
425 1 4.24
426 1 4.25
427 1 4.26
428 1 4.27
429 1 4.28
430 1 4.29
431 1 4.3
432 1 4.31
433 1 4.32
434 1 4.33
435 1 4.34
436 1 4.35
437 1 4.36
438 1 4.37
439 1 4.38
440 1 4.39
441 1 4.4
442 1 4.41
443 1 4.42
444 1 4.43
445 1 4.44
446 1 4.45
447 1 4.46
448 1 4.47
449 1 4.48
450 1 4.49
451 1 4.5
452 1 4.51
453 1 4.52
454 1 4.53
455 1 4.54
456 1 4.55
457 1 4.56
458 1 4.57
459 1 4.58
460 1 4.59
461 1 4.6
462 1 4.61
463 1 4.62
464 1 4.63
465 1 4.64
466 1 4.65
467 1 4.66
468 1 4.67
469 1 4.68
470 1 4.69
471 1 4.7
472 1 4.71
473 1 4.72
474 1 4.73
475 1 4.74
476 1 4.75
477 1 4.76
478 1 4.77
479 1 4.78
480 1 4.79
481 1 4.8
482 1 4.81
483 1 4.82
484 1 4.83
485 1 4.84
486 1 4.85
487 1 4.86
488 1 4.87
489 1 4.88
490 1 4.89
491 1 4.9
492 1 4.91
493 1 4.92
494 1 4.93
495 1 4.94
496 1 4.95
497 1 4.96
498 1 4.97
499 1 4.98
500 1 4.99
501 1 5
502 1 5.01
503 1 5.02
504 1 5.03
505 1 5.04
506 1 5.05
507 1 5.06
508 1 5.07
509 1 5.08
510 1 5.09
511 1 5.1
512 1 5.11
513 1 5.12
514 1 5.13
515 1 5.14
516 1 5.15
517 1 5.16
518 1 5.17
519 1 5.18
520 1 5.19
521 1 5.2
522 1 5.21
523 1 5.22
524 1 5.23
525 1 5.24
526 1 5.25
527 1 5.26
528 1 5.27
529 1 5.28
530 1 5.29
531 1 5.3
532 1 5.31
533 1 5.32
534 1 5.33
535 1 5.34
536 1 5.35
537 1 5.36
538 1 5.37
539 1 5.38
540 1 5.39
541 1 5.4
542 1 5.41
543 1 5.42
544 1 5.43
545 1 5.44
546 1 5.45
547 1 5.46
548 1 5.47
549 1 5.48
550 1 5.49
551 1 5.5
552 1 5.51
553 1 5.52
554 1 5.53
555 1 5.54
556 1 5.55
557 1 5.56
558 1 5.57
559 1 5.58
560 1 5.59
561 1 5.6
562 1 5.61
563 1 5.62
564 1 5.63
565 1 5.64
566 1 5.65
567 1 5.66
568 1 5.67
569 1 5.68
570 1 5.69
571 1 5.7
572 1 5.71
573 1 5.72
574 1 5.73
575 1 5.74
576 1 5.75
577 1 5.76
578 1 5.77
579 1 5.78
580 1 5.79
581 1 5.8
582 1 5.81
583 1 5.82
584 1 5.83
585 1 5.84
586 1 5.85
587 1 5.86
588 1 5.87
589 1 5.88
590 1 5.89
591 1 5.9
592 1 5.91
593 1 5.92
594 1 5.93
595 1 5.94
596 1 5.95
597 1 5.96
598 1 5.97
599 1 5.98
600 1 5.99
601 1 6
602 1 6.01
603 1 6.02
604 1 6.03
605 1 6.04
606 1 6.05
607 1 6.06
608 1 6.07
609 1 6.08
610 1 6.09
611 1 6.1
612 1 6.11
613 1 6.12
614 1 6.13
615 1 6.14
616 1 6.15
617 1 6.16
618 1 6.17
619 1 6.18
620 1 6.19
621 1 6.2
622 1 6.21
623 1 6.22
624 1 6.23
625 1 6.24
626 1 6.25
627 1 6.26
628 1 6.27
629 1 6.28
630 1 6.29
631 1 6.3
632 1 6.31
633 1 6.32
634 1 6.33
635 1 6.34
636 1 6.35
637 1 6.36
638 1 6.37
639 1 6.38
640 1 6.39
641 1 6.4
642 1 6.41
643 1 6.42
644 1 6.43
645 1 6.44
646 1 6.45
647 1 6.46
648 1 6.47
649 1 6.48
650 1 6.49
651 1 6.5
652 1 6.51
653 1 6.52
654 1 6.53
655 1 6.54
656 1 6.55
657 1 6.56
658 1 6.57
659 1 6.58
660 1 6.59
661 1 6.6
662 1 6.61
663 1 6.62
664 1 6.63
665 1 6.64
666 1 6.65
667 1 6.66
668 1 6.67
669 1 6.68
670 1 6.69
671 1 6.7
672 1 6.71
673 1 6.72
674 1 6.73
675 1 6.74
676 1 6.75
677 1 6.76
678 1 6.77
679 1 6.78
680 1 6.79
681 1 6.8
682 1 6.81
683 1 6.82
684 1 6.83
685 1 6.84
686 1 6.85
687 1 6.86
688 1 6.87
689 1 6.88
690 1 6.89
691 1 6.9
692 1 6.91
693 1 6.92
694 1 6.93
695 1 6.94
696 1 6.95
697 1 6.96
698 1 6.97
699 1 6.98
700 1 6.99
701 1 7
702 1 7.01
703 1 7.02
704 1 7.03
705 1 7.04
706 1 7.05
707 1 7.06
708 1 7.07
709 1 7.08
710 1 7.09
711 1 7.1
712 1 7.11
713 1 7.12
714 1 7.13
715 1 7.14
716 1 7.15
717 1 7.16
718 1 7.17
719 1 7.18
720 1 7.19
721 1 7.2
722 1 7.21
723 1 7.22
724 1 7.23
725 1 7.24
726 1 7.25
727 1 7.26
728 1 7.27
729 1 7.28
730 1 7.29
731 1 7.3
732 1 7.31
733 1 7.32
734 1 7.33
735 1 7.34
736 1 7.35
737 1 7.36
738 1 7.37
739 1 7.38
740 1 7.39
741 1 7.4
742 1 7.41
743 1 7.42
744 1 7.43
745 1 7.44
746 1 7.45
747 1 7.46
748 1 7.47
749 1 7.48
750 1 7.49
751 1 7.5
752 1 7.51
753 1 7.52
754 1 7.53
755 1 7.54
756 1 7.55
757 1 7.56
758 1 7.57
759 1 7.58
760 1 7.59
761 1 7.6
762 1 7.61
763 1 7.62
764 1 7.63
765 1 7.64
766 1 7.65
767 1 7.66
768 1 7.67
769 1 7.68
770 1 7.69
771 1 7.7
772 1 7.71
773 1 7.72
774 1 7.73
775 1 7.74
776 1 7.75
777 1 7.76
778 1 7.77
779 1 7.78
780 1 7.79
781 1 7.8
782 1 7.81
783 1 7.82
784 1 7.83
785 1 7.84
786 1 7.85
787 1 7.86
788 1 7.87
789 1 7.88
790 1 7.89
791 1 7.9
792 1 7.91
793 1 7.92
794 1 7.93
795 1 7.94
796 1 7.95
797 1 7.96
798 1 7.97
799 1 7.98
800 1 7.99
801 1 8
802 1 8.01
803 1 8.02
804 1 8.03
805 1 8.04
806 1 8.05
807 1 8.06
808 1 8.07
809 1 8.08
810 1 8.09
811 1 8.1
812 1 8.11
813 1 8.12
814 1 8.13
815 1 8.14
816 1 8.15
817 1 8.16
818 1 8.17
819 1 8.18
820 1 8.19
821 1 8.2
822 1 8.21
823 1 8.22
824 1 8.23
825 1 8.24
826 1 8.25
827 1 8.26
828 1 8.27
829 1 8.28
830 1 8.29
831 1 8.3
832 1 8.31
833 1 8.32
834 1 8.33
835 1 8.34
836 1 8.35
837 1 8.36
838 1 8.37
839 1 8.38
840 1 8.39
841 1 8.4
842 1 8.41
843 1 8.42
844 1 8.43
845 1 8.44
846 1 8.45
847 1 8.46
848 1 8.47
849 1 8.48
850 1 8.49
851 1 8.5
852 1 8.51
853 1 8.52
854 1 8.53
855 1 8.54
856 1 8.55
857 1 8.56
858 1 8.57
859 1 8.58
860 1 8.59
861 1 8.6
862 1 8.61
863 1 8.62
864 1 8.63
865 1 8.64
866 1 8.65
867 1 8.66
868 1 8.67
869 1 8.68
870 1 8.69
871 1 8.7
872 1 8.71
873 1 8.72
874 1 8.73
875 1 8.74
876 1 8.75
877 1 8.76
878 1 8.77
879 1 8.78
880 1 8.79
881 1 8.8
882 1 8.81
883 1 8.82
884 1 8.83
885 1 8.84
886 1 8.85
887 1 8.86
888 1 8.87
889 1 8.88
890 1 8.89
891 1 8.9
892 1 8.91
893 1 8.92
894 1 8.93
895 1 8.94
896 1 8.95
897 1 8.96
898 1 8.97
899 1 8.98
900 1 8.99
901 1 9
902 1 9.01
903 1 9.02
904 1 9.03
905 1 9.04
906 1 9.05
907 1 9.06
908 1 9.07
909 1 9.08
910 1 9.09
911 1 9.1
912 1 9.11
913 1 9.12
914 1 9.13
915 1 9.14
916 1 9.15
917 1 9.16
918 1 9.17
919 1 9.18
920 1 9.19
921 1 9.2
922 1 9.21
923 1 9.22
924 1 9.23
925 1 9.24
926 1 9.25
927 1 9.26
928 1 9.27
929 1 9.28
930 1 9.29
931 1 9.3
932 1 9.31
933 1 9.32
934 1 9.33
935 1 9.34
936 1 9.35
937 1 9.36
938 1 9.37
939 1 9.38
940 1 9.39
941 1 9.4
942 1 9.41
943 1 9.42
944 1 9.43
945 1 9.44
946 1 9.45
947 1 9.46
948 1 9.47
949 1 9.48
950 1 9.49
951 1 9.5
952 1 9.51
953 1 9.52
954 1 9.53
955 1 9.54
956 1 9.55
957 1 9.56
958 1 9.57
959 1 9.58
960 1 9.59
961 1 9.6
962 1 9.61
963 1 9.62
964 1 9.63
965 1 9.64
966 1 9.65
967 1 9.66
968 1 9.67
969 1 9.68
970 1 9.69
971 1 9.7
972 1 9.71
973 1 9.72
974 1 9.73
975 1 9.74
976 1 9.75
977 1 9.76
978 1 9.77
979 1 9.78
980 1 9.79
981 1 9.8
982 1 9.81
983 1 9.82
984 1 9.83
985 1 9.84
986 1 9.85
987 1 9.86
988 1 9.87
989 1 9.88
990 1 9.89
991 1 9.9
992 1 9.91
993 1 9.92
994 1 9.93
995 1 9.94
996 1 9.95
997 1 9.96
998 1 9.97
999 1 9.98
1000 1 9.99
ITEM: TIMESTEP
2
ITEM: NUMBER OF ATOMS
1000
ITEM: BOX BOUNDS pp pp pp
0.0000000000000000e+00 1.0000000000000000e+02
0.0000000000000000e+00 1.0000000000000000e+02
0.0000000000000000e+00 1.0000000000000000e+02
ITEM: ATOMS id type c_test1
1 1 0
2 1 0.01
3 1 0.02
4 1 0.03
5 1 0.04
6 1 0.05
7 1 0.06
8 1 0.07
9 1 0.08
10 1 0.09
11 1 0.1
12 1 0.11
13 1 0.12
14 1 0.13
15 1 0.14
16 1 0.15
17 1 0.16
18 1 0.17
19 1 0.18
20 1 0.19
21 1 0.2
22 1 0.21
23 1 0.22
24 1 0.23
25 1 0.24
26 1 0.25
27 1 0.26
28 1 0.27
29 1 0.28
30 1 0.29
31 1 0.3
32 1 0.31
33 1 0.32
34 1 0.33
35 1 0.34
36 1 0.35
37 1 0.36
38 1 0.37
39 1 0.38
40 1 0.39
41 1 0.4
42 1 0.41
43 1 0.42
44 1 0.43
45 1 0.44
46 1 0.45
47 1 0.46
48 1 0.47
49 1 0.48
50 1 0.49
51 1 0.5
52 1 0.51
53 1 0.52
54 1 0.53
55 1 0.54
56 1 0.55
57 1 0.56
58 1 0.57
59 1 0.58
60 1 0.59
61 1 0.6
62 1 0.61
63 1 0.62
64 1 0.63
65 1 0.64
66 1 0.65
67 1 0.66
68 1 0.67
69 1 0.68
70 1 0.69
71 1 0.7
72 1 0.71
73 1 0.72
74 1 0.73
75 1 0.74
76 1 0.75
77 1 0.76
78 1 0.77
79 1 0.78
80 1 0.79
81 1 0.8
82 1 0.81
83 1 0.82
84 1 0.83
85 1 0.84
86 1 0.85
87 1 0.86
88 1 0.87
89 1 0.88
90 1 0.89
91 1 0.9
92 1 0.91
93 1 0.92
94 1 0.93
95 1 0.94
96 1 0.95
97 1 0.96
98 1 0.97
99 1 0.98
100 1 0.99
101 1 1
102 1 1.01
103 1 1.02
104 1 1.03
105 1 1.04
106 1 1.05
107 1 1.06
108 1 1.07
109 1 1.08
110 1 1.09
111 1 1.1
112 1 1.11
113 1 1.12
114 1 1.13
115 1 1.14
116 1 1.15
117 1 1.16
118 1 1.17
119 1 1.18
120 1 1.19
121 1 1.2
122 1 1.21
123 1 1.22
124 1 1.23
125 1 1.24
126 1 1.25
127 1 1.26
128 1 1.27
129 1 1.28
130 1 1.29
131 1 1.3
132 1 1.31
133 1 1.32
134 1 1.33
135 1 1.34
136 1 1.35
137 1 1.36
138 1 1.37
139 1 1.38
140 1 1.39
141 1 1.4
142 1 1.41
143 1 1.42
144 1 1.43
145 1 1.44
146 1 1.45
147 1 1.46
148 1 1.47
149 1 1.48
150 1 1.49
151 1 1.5
152 1 1.51
153 1 1.52
154 1 1.53
155 1 1.54
156 1 1.55
157 1 1.56
158 1 1.57
159 1 1.58
160 1 1.59
161 1 1.6
162 1 1.61
163 1 1.62
164 1 1.63
165 1 1.64
166 1 1.65
167 1 1.66
168 1 1.67
169 1 1.68
170 1 1.69
171 1 1.7
172 1 1.71
173 1 1.72
174 1 1.73
175 1 1.74
176 1 1.75
177 1 1.76
178 1 1.77
179 1 1.78
180 1 1.79
181 1 1.8
182 1 1.81
183 1 1.82
184 1 1.83
185 1 1.84
186 1 1.85
187 1 1.86
188 1 1.87
189 1 1.88
190 1 1.89
191 1 1.9
192 1 1.91
193 1 1.92
194 1 1.93
195 1 1.94
196 1 1.95
197 1 1.96
198 1 1.97
199 1 1.98
200 1 1.99
201 1 2
202 1 2.01
203 1 2.02
204 1 2.03
205 1 2.04
206 1 2.05
207 1 2.06
208 1 2.07
209 1 2.08
210 1 2.09
211 1 2.1
212 1 2.11
213 1 2.12
214 1 2.13
215 1 2.14
216 1 2.15
217 1 2.16
218 1 2.17
219 1 2.18
220 1 2.19
221 1 2.2
222 1 2.21
223 1 2.22
224 1 2.23
225 1 2.24
226 1 2.25
227 1 2.26
228 1 2.27
229 1 2.28
230 1 2.29
231 1 2.3
232 1 2.31
233 1 2.32
234 1 2.33
235 1 2.34
236 1 2.35
237 1 2.36
238 1 2.37
239 1 2.38
240 1 2.39
241 1 2.4
242 1 2.41
243 1 2.42
244 1 2.43
245 1 2.44
246 1 2.45
247 1 2.46
248 1 2.47
249 1 2.48
250 1 2.49
251 1 2.5
252 1 2.51
253 1 2.52
254 1 2.53
255 1 2.54
256 1 2.55
257 1 2.56
258 1 2.57
259 1 2.58
260 1 2.59
261 1 2.6
262 1 2.61
263 1 2.62
264 1 2.63
265 1 2.64
266 1 2.65
267 1 2.66
268 1 2.67
269 1 2.68
270 1 2.69
271 1 2.7
272 1 2.71
273 1 2.72
274 1 2.73
275 1 2.74
276 1 2.75
277 1 2.76
278 1 2.77
279 1 2.78
280 1 2.79
281 1 2.8
282 1 2.81
283 1 2.82
284 1 2.83
285 1 2.84
286 1 2.85
287 1 2.86
288 1 2.87
289 1 2.88
290 1 2.89
291 1 2.9
292 1 2.91
293 1 2.92
294 1 2.93
295 1 2.94
296 1 2.95
297 1 2.96
298 1 2.97
299 1 2.98
300 1 2.99
301 1 3
302 1 3.01
303 1 3.02
304 1 3.03
305 1 3.04
306 1 3.05
307 1 3.06
308 1 3.07
309 1 3.08
310 1 3.09
311 1 3.1
312 1 3.11
313 1 3.12
314 1 3.13
315 1 3.14
316 1 3.15
317 1 3.16
318 1 3.17
319 1 3.18
320 1 3.19
321 1 3.2
322 1 3.21
323 1 3.22
324 1 3.23
325 1 3.24
326 1 3.25
327 1 3.26
328 1 3.27
329 1 3.28
330 1 3.29
331 1 3.3
332 1 3.31
333 1 3.32
334 1 3.33
335 1 3.34
336 1 3.35
337 1 3.36
338 1 3.37
339 1 3.38
340 1 3.39
341 1 3.4
342 1 3.41
343 1 3.42
344 1 3.43
345 1 3.44
346 1 3.45
347 1 3.46
348 1 3.47
349 1 3.48
350 1 3.49
351 1 3.5
352 1 3.51
353 1 3.52
354 1 3.53
355 1 3.54
356 1 3.55
357 1 3.56
358 1 3.57
359 1 3.58
360 1 3.59
361 1 3.6
362 1 3.61
363 1 3.62
364 1 3.63
365 1 3.64
366 1 3.65
367 1 3.66
368 1 3.67
369 1 3.68
370 1 3.69
371 1 3.7
372 1 3.71
373 1 3.72
374 1 3.73
375 1 3.74
376 1 3.75
377 1 3.76
378 1 3.77
379 1 3.78
380 1 3.79
381 1 3.8
382 1 3.81
383 1 3.82
384 1 3.83
385 1 3.84
386 1 3.85
387 1 3.86
388 1 3.87
389 1 3.88
390 1 3.89
391 1 3.9
392 1 3.91
393 1 3.92
394 1 3.93
395 1 3.94
396 1 3.95
397 1 3.96
398 1 3.97
399 1 3.98
400 1 3.99
401 1 4
402 1 4.01
403 1 4.02
404 1 4.03
405 1 4.04
406 1 4.05
407 1 4.06
408 1 4.07
409 1 4.08
410 1 4.09
411 1 4.1
412 1 4.11
413 1 4.12
414 1 4.13
415 1 4.14
416 1 4.15
417 1 4.16
418 1 4.17
419 1 4.18
420 1 4.19
421 1 4.2
422 1 4.21
423 1 4.22
424 1 4.23
425 1 4.24
426 1 4.25
427 1 4.26
428 1 4.27
429 1 4.28
430 1 4.29
431 1 4.3
432 1 4.31
433 1 4.32
434 1 4.33
435 1 4.34
436 1 4.35
437 1 4.36
438 1 4.37
439 1 4.38
440 1 4.39
441 1 4.4
442 1 4.41
443 1 4.42
444 1 4.43
445 1 4.44
446 1 4.45
447 1 4.46
448 1 4.47
449 1 4.48
450 1 4.49
451 1 4.5
452 1 4.51
453 1 4.52
454 1 4.53
455 1 4.54
456 1 4.55
457 1 4.56
458 1 4.57
459 1 4.58
460 1 4.59
461 1 4.6
462 1 4.61
463 1 4.62
464 1 4.63
465 1 4.64
466 1 4.65
467 1 4.66
468 1 4.67
469 1 4.68
470 1 4.69
471 1 4.7
472 1 4.71
473 1 4.72
474 1 4.73
475 1 4.74
476 1 4.75
477 1 4.76
478 1 4.77
479 1 4.78
480 1 4.79
481 1 4.8
482 1 4.81
483 1 4.82
484 1 4.83
485 1 4.84
486 1 4.85
487 1 4.86
488 1 4.87
489 1 4.88
490 1 4.89
491 1 4.9
492 1 4.91
493 1 4.92
494 1 4.93
495 1 4.94
496 1 4.95
497 1 4.96
498 1 4.97
499 1 4.98
500 1 4.99
501 1 5
502 1 5.01
503 1 5.02
504 1 5.03
505 1 5.04
506 1 5.05
507 1 5.06
508 1 5.07
509 1 5.08
510 1 5.09
511 1 5.1
512 1 5.11
513 1 5.12
514 1 5.13
515 1 5.14
516 1 5.15
517 1 5.16
518 1 5.17
519 1 5.18
520 1 5.19
521 1 5.2
522 1 5.21
523 1 5.22
524 1 5.23
525 1 5.24
526 1 5.25
527 1 5.26
528 1 5.27
529 1 5.28
530 1 5.29
531 1 5.3
532 1 5.31
533 1 5.32
534 1 5.33
535 1 5.34
536 1 5.35
537 1 5.36
538 1 5.37
539 1 5.38
540 1 5.39
541 1 5.4
542 1 5.41
543 1 5.42
544 1 5.43
545 1 5.44
546 1 5.45
547 1 5.46
548 1 5.47
549 1 5.48
550 1 5.49
551 1 5.5
552 1 5.51
553 1 5.52
554 1 5.53
555 1 5.54
556 1 5.55
557 1 5.56
558 1 5.57
559 1 5.58
560 1 5.59
561 1 5.6
562 1 5.61
563 1 5.62
564 1 5.63
565 1 5.64
566 1 5.65
567 1 5.66
568 1 5.67
569 1 5.68
570 1 5.69
571 1 5.7
572 1 5.71
573 1 5.72
574 1 5.73
575 1 5.74
576 1 5.75
577 1 5.76
578 1 5.77
579 1 5.78
580 1 5.79
581 1 5.8
582 1 5.81
583 1 5.82
584 1 5.83
585 1 5.84
586 1 5.85
587 1 5.86
588 1 5.87
589 1 5.88
590 1 5.89
591 1 5.9
592 1 5.91
593 1 5.92
594 1 5.93
595 1 5.94
596 1 5.95
597 1 5.96
598 1 5.97
599 1 5.98
600 1 5.99
601 1 6
602 1 6.01
603 1 6.02
604 1 6.03
605 1 6.04
606 1 6.05
607 1 6.06
608 1 6.07
609 1 6.08
610 1 6.09
611 1 6.1
612 1 6.11
613 1 6.12
614 1 6.13
615 1 6.14
616 1 6.15
617 1 6.16
618 1 6.17
619 1 6.18
620 1 6.19
621 1 6.2
622 1 6.21
623 1 6.22
624 1 6.23
625 1 6.24
626 1 6.25
627 1 6.26
628 1 6.27
629 1 6.28
630 1 6.29
631 1 6.3
632 1 6.31
633 1 6.32
634 1 6.33
635 1 6.34
636 1 6.35
637 1 6.36
638 1 6.37
639 1 6.38
640 1 6.39
641 1 6.4
642 1 6.41
643 1 6.42
644 1 6.43
645 1 6.44
646 1 6.45
647 1 6.46
648 1 6.47
649 1 6.48
650 1 6.49
651 1 6.5
652 1 6.51
653 1 6.52
654 1 6.53
655 1 6.54
656 1 6.55
657 1 6.56
658 1 6.57
659 1 6.58
660 1 6.59
661 1 6.6
662 1 6.61
663 1 6.62
664 1 6.63
665 1 6.64
666 1 6.65
667 1 6.66
668 1 6.67
669 1 6.68
670 1 6.69
671 1 6.7
672 1 6.71
673 1 6.72
674 1 6.73
675 1 6.74
676 1 6.75
677 1 6.76
678 1 6.77
679 1 6.78
680 1 6.79
681 1 6.8
682 1 6.81
683 1 6.82
684 1 6.83
685 1 6.84
686 1 6.85
687 1 6.86
688 1 6.87
689 1 6.88
690 1 6.89
691 1 6.9
692 1 6.91
693 1 6.92
694 1 6.93
695 1 6.94
696 1 6.95
697 1 6.96
698 1 6.97
699 1 6.98
700 1 6.99
701 1 7
702 1 7.01
703 1 7.02
704 1 7.03
705 1 7.04
706 1 7.05
707 1 7.06
708 1 7.07
709 1 7.08
710 1 7.09
711 1 7.1
712 1 7.11
713 1 7.12
714 1 7.13
715 1 7.14
716 1 7.15
717 1 7.16
718 1 7.17
719 1 7.18
720 1 7.19
721 1 7.2
722 1 7.21