ITEM: TIMESTEP
0
ITEM: NUMBER OF ATOMS
1000
ITEM: BOX BOUNDS pp pp pp
0.0000000000000000e+00 1.0000000000000000e+02
0.0000000000000000e+00 1.0000000000000000e+02
0.0000000000000000e+00 1.0000000000000000e+02
ITEM: ATOMS id type c_test2[1] c_test2[2] c_test2[3]
1 1 0 0 0
2 1 10 0 0
3 1 20 0 0
4 1 30 0 0
5 1 40 0 0
6 1 50 0 0
7 1 60 0 0
8 1 70 0 0
9 1 80 0 0
10 1 90 0 0
11 1 0 10 0
12 1 10 10 0
13 1 20 10 0
14 1 30 10 0
15 1 40 10 0
16 1 50 10 0
17 1 60 10 0
18 1 70 10 0
19 1 80 10 0
20 1 90 10 0
21 1 0 20 0
22 1 10 20 0
23 1 20 20 0
24 1 30 20 0
25 1 40 20 0
26 1 50 20 0
27 1 60 20 0
28 1 70 20 0
29 1 80 20 0
30 1 90 20 0
31 1 0 30 0
32 1 10 30 0
33 1 20 30 0
34 1 30 30 0
35 1 40 30 0
36 1 50 30 0
37 1 60 30 0
38 1 70 30 0
39 1 80 30 0
40 1 90 30 0
41 1 0 40 0
42 1 10 40 0
43 1 20 40 0
44 1 30 40 0
45 1 40 40 0
46 1 50 40 0
47 1 60 40 0
48 1 70 40 0
49 1 80 40 0
50 1 90 40 0
51 1 0 50 0
52 1 10 50 0
53 1 20 50 0
54 1 30 50 0
55 1 40 50 0
56 1 50 50 0
57 1 60 50 0
58 1 70 50 0
59 1 80 50 0
60 1 90 50 0
61 1 0 60 0
62 1 10 60 0
63 1 20 60 0
64 1 30 60 0
65 1 40 60 0
66 1 50 60 0
67 1 60 60 0
68 1 70 60 0
69 1 80 60 0
70 1 90 60 0
71 1 0 70 0
72 1 10 70 0
73 1 20 70 0
74 1 30 70 0
75 1 40 70 0
76 1 50 70 0
77 1 60 70 0
78 1 70 70 0
79 1 80 70 0
80 1 90 70 0
81 1 0 80 0
82 1 10 80 0
83 1 20 80 0
84 1 30 80 0
85 1 40 80 0
86 1 50 80 0
87 1 60 80 0
88 1 70 80 0
89 1 80 80 0
90 1 90 80 0
91 1 0 90 0
92 1 10 90 0
93 1 20 90 0
94 1 30 90 0
95 1 40 90 0
96 1 50 90 0
97 1 60 90 0
98 1 70 90 0
99 1 80 90 0
100 1 90 90 0
101 1 0 0 10
102 1 10 0 10
103 1 20 0 10
104 1 30 0 10
105 1 40 0 10
106 1 50 0 10
107 1 60 0 10
108 1 70 0 10
109 1 80 0 10
110 1 90 0 10
111 1 0 10 10
112 1 10 10 10
113 1 20 10 10
114 1 30 10 10
115 1 40 10 10
116 1 50 10 10
117 1 60 10 10
118 1 70 10 10
119 1 80 10 10
120 1 90 10 10
121 1 0 20 10
122 1 10 20 10
123 1 20 20 10
124 1 30 20 10
125 1 40 20 10
126 1 50 20 10
127 1 60 20 10
128 1 70 20 10
129 1 80 20 10
130 1 90 20 10
131 1 0 30 10
132 1 10 30 10
133 1 20 30 10
134 1 30 30 10
135 1 40 30 10
136 1 50 30 10
137 1 60 30 10
138 1 70 30 10
139 1 80 30 10
140 1 90 30 10
141 1 0 40 10
142 1 10 40 10
143 1 20 40 10
144 1 30 40 10
145 1 40 40 10
146 1 50 40 10
147 1 60 40 10
148 1 70 40 10
149 1 80 40 10
150 1 90 40 10
151 1 0 50 10
152 1 10 50 10
153 1 20 50 10
154 1 30 50 10
155 1 40 50 10
156 1 50 50 10
157 1 60 50 10
158 1 70 50 10
159 1 80 50 10
160 1 90 50 10
161 1 0 60 10
162 1 10 60 10
163 1 20 60 10
164 1 30 60 10
165 1 40 60 10
166 1 50 60 10
167 1 60 60 10
168 1 70 60 10
169 1 80 60 10
170 1 90 60 10
171 1 0 70 10
172 1 10 70 10
173 1 20 70 10
174 1 30 70 10
175 1 40 70 10
176 1 50 70 10
177 1 60 70 10
178 1 70 70 10
179 1 80 70 10
180 1 90 70 10
181 1 0 80 10
182 1 10 80 10
183 1 20 80 10
184 1 30 80 10
185 1 40 80 10
186 1 50 80 10
187 1 60 80 10
188 1 70 80 10
189 1 80 80 10
190 1 90 80 10
191 1 0 90 10
192 1 10 90 10
193 1 20 90 10
194 1 30 90 10
195 1 40 90 10
196 1 50 90 10
197 1 60 90 10
198 1 70 90 10
199 1 80 90 10
200 1 90 90 10
201 1 0 0 20
202 1 10 0 20
203 1 20 0 20
204 1 30 0 20
205 1 40 0 20
206 1 50 0 20
207 1 60 0 20
208 1 70 0 20
209 1 80 0 20
210 1 90 0 20
211 1 0 10 20
212 1 10 10 20
213 1 20 10 20
214 1 30 10 20
215 1 40 10 20
216 1 50 10 20
217 1 60 10 20
218 1 70 10 20
219 1 80 10 20
220 1 90 10 20
221 1 0 20 20
222 1 10 20 20
223 1 20 20 20
224 1 30 20 20
225 1 40 20 20
226 1 50 20 20
227 1 60 20 20
228 1 70 20 20
229 1 80 20 20
230 1 90 20 20
231 1 0 30 20
232 1 10 30 20
233 1 20 30 20
234 1 30 30 20
235 1 40 30 20
236 1 50 30 20
237 1 60 30 20
238 1 70 30 20
239 1 80 30 20
240 1 90 30 20
241 1 0 40 20
242 1 10 40 20
243 1 20 40 20
244 1 30 40 20
245 1 40 40 20
246 1 50 40 20
247 1 60 40 20
248 1 70 40 20
249 1 80 40 20
250 1 90 40 20
251 1 0 50 20
252 1 10 50 20
253 1 20 50 20
254 1 30 50 20
255 1 40 50 20
256 1 50 50 20
257 1 60 50 20
258 1 70 50 20
259 1 80 50 20
260 1 90 50 20
261 1 0 60 20
262 1 10 60 20
263 1 20 60 20
264 1 30 60 20
265 1 40 60 20
266 1 50 60 20
267 1 60 60 20
268 1 70 60 20
269 1 80 60 20
270 1 90 60 20
271 1 0 70 20
272 1 10 70 20
273 1 20 70 20
274 1 30 70 20
275 1 40 70 20
276 1 50 70 20
277 1 60 70 20
278 1 70 70 20
279 1 80 70 20
280 1 90 70 20
281 1 0 80 20
282 1 10 80 20
283 1 20 80 20
284 1 30 80 20
285 1 40 80 20
286 1 50 80 20
287 1 60 80 20
288 1 70 80 20
289 1 80 80 20
290 1 90 80 20
291 1 0 90 20
292 1 10 90 20
293 1 20 90 20
294 1 30 90 20
295 1 40 90 20
296 1 50 90 20
297 1 60 90 20
298 1 70 90 20
299 1 80 90 20
300 1 90 90 20
301 1 0 0 30
302 1 10 0 30
303 1 20 0 30
304 1 30 0 30
305 1 40 0 30
306 1 50 0 30
307 1 60 0 30
308 1 70 0 30
309 1 80 0 30
310 1 90 0 30
311 1 0 10 30
312 1 10 10 30
313 1 20 10 30
314 1 30 10 30
315 1 40 10 30
316 1 50 10 30
317 1 60 10 30
318 1 70 10 30
319 1 80 10 30
320 1 90 10 30
321 1 0 20 30
322 1 10 20 30
323 1 20 20 30
324 1 30 20 30
325 1 40 20 30
326 1 50 20 30
327 1 60 20 30
328 1 70 20 30
329 1 80 20 30
330 1 90 20 30
331 1 0 30 30
332 1 10 30 30
333 1 20 30 30
334 1 30 30 30
335 1 40 30 30
336 1 50 30 30
337 1 60 30 30
338 1 70 30 30
339 1 80 30 30
340 1 90 30 30
341 1 0 40 30
342 1 10 40 30
343 1 20 40 30
344 1 30 40 30
345 1 40 40 30
346 1 50 40 30
347 1 60 40 30
348 1 70 40 30
349 1 80 40 30
350 1 90 40 30
351 1 0 50 30
352 1 10 50 30
353 1 20 50 30
354 1 30 50 30
355 1 40 50 30
356 1 50 50 30
357 1 60 50 30
358 1 70 50 30
359 1 80 50 30
360 1 90 50 30
361 1 0 60 30
362 1 10 60 30
363 1 20 60 30
364 1 30 60 30
365 1 40 60 30
366 1 50 60 30
367 1 60 60 30
368 1 70 60 30
369 1 80 60 30
370 1 90 60 30
371 1 0 70 30
372 1 10 70 30
373 1 20 70 30
374 1 30 70 30
375 1 40 70 30
376 1 50 70 30
377 1 60 70 30
378 1 70 70 30
379 1 80 70 30
380 1 90 70 30
381 1 0 80 30
382 1 10 80 30
383 1 20 80 30
384 1 30 80 30
385 1 40 80 30
386 1 50 80 30
387 1 60 80 30
388 1 70 80 30
389 1 80 80 30
390 1 90 80 30
391 1 0 90 30
392 1 10 90 30
393 1 20 90 30
394 1 30 90 30
395 1 40 90 30
396 1 50 90 30
397 1 60 90 30
398 1 70 90 30
399 1 80 90 30
400 1 90 90 30
401 1 0 0 40
402 1 10 0 40
403 1 20 0 40
404 1 30 0 40
405 1 40 0 40
406 1 50 0 40
407 1 60 0 40
408 1 70 0 40
409 1 80 0 40
410 1 90 0 40
411 1 0 10 40
412 1 10 10 40
413 1 20 10 40
414 1 30 10 40
415 1 40 10 40
416 1 50 10 40
417 1 60 10 40
418 1 70 10 40
419 1 80 10 40
420 1 90 10 40
421 1 0 20 40
422 1 10 20 40
423 1 20 20 40
424 1 30 20 40
425 1 40 20 40
426 1 50 20 40
427 1 60 20 40
428 1 70 20 40
429 1 80 20 40
430 1 90 20 40
431 1 0 30 40
432 1 10 30 40
433 1 20 30 40
434 1 30 30 40
435 1 40 30 40
436 1 50 30 40
437 1 60 30 40
438 1 70 30 40
439 1 80 30 40
440 1 90 30 40
441 1 0 40 40
442 1 10 40 40
443 1 20 40 40
444 1 30 40 40
445 1 40 40 40
446 1 50 40 40
447 1 60 40 40
448 1 70 40 40
449 1 80 40 40
450 1 90 40 40
451 1 0 50 40
452 1 10 50 40
453 1 20 50 40
454 1 30 50 40
455 1 40 50 40
456 1 50 50 40
457 1 60 50 40
458 1 70 50 40
459 1 80 50 40
460 1 90 50 40
461 1 0 60 40
462 1 10 60 40
463 1 20 60 40
464 1 30 60 40
465 1 40 60 40
466 1 50 60 40
467 1 60 60 40
468 1 70 60 40
469 1 80 60 40
470 1 90 60 40
471 1 0 70 40
472 1 10 70 40
473 1 20 70 40
474 1 30 70 40
475 1 40 70 40
476 1 50 70 40
477 1 60 70 40
478 1 70 70 40
479 1 80 70 40
480 1 90 70 40
481 1 0 80 40
482 1 10 80 40
483 1 20 80 40
484 1 30 80 40
485 1 40 80 40
486 1 50 80 40
487 1 60 80 40
488 1 70 80 40
489 1 80 80 40
490 1 90 80 40
491 1 0 90 40
492 1 10 90 40
493 1 20 90 40
494 1 30 90 40
495 1 40 90 40
496 1 50 90 40
497 1 60 90 40
498 1 70 90 40
499 1 80 90 40
500 1 90 90 40
501 1 0 0 50
502 1 10 0 50
503 1 20 0 50
504 1 30 0 50
505 1 40 0 50
506 1 50 0 50
507 1 60 0 50
508 1 70 0 50
509 1 80 0 50
510 1 90 0 50
511 1 0 10 50
512 1 10 10 50
513 1 20 10 50
514 1 30 10 50
515 1 40 10 50
516 1 50 10 50
517 1 60 10 50
518 1 70 10 50
519 1 80 10 50
520 1 90 10 50
521 1 0 20 50
522 1 10 20 50
523 1 20 20 50
524 1 30 20 50
525 1 40 20 50
526 1 50 20 50
527 1 60 20 50
528 1 70 20 50
529 1 80 20 50
530 1 90 20 50
531 1 0 30 50
532 1 10 30 50
533 1 20 30 50
534 1 30 30 50
535 1 40 30 50
536 1 50 30 50
537 1 60 30 50
538 1 70 30 50
539 1 80 30 50
540 1 90 30 50
541 1 0 40 50
542 1 10 40 50
543 1 20 40 50
544 1 30 40 50
545 1 40 40 50
546 1 50 40 50
547 1 60 40 50
548 1 70 40 50
549 1 80 40 50
550 1 90 40 50
551 1 0 50 50
552 1 10 50 50
553 1 20 50 50
554 1 30 50 50
555 1 40 50 50
556 1 50 50 50
557 1 60 50 50
558 1 70 50 50
559 1 80 50 50
560 1 90 50 50
561 1 0 60 50
562 1 10 60 50
563 1 20 60 50
564 1 30 60 50
565 1 40 60 50
566 1 50 60 50
567 1 60 60 50
568 1 70 60 50
569 1 80 60 50
570 1 90 60 50
571 1 0 70 50
572 1 10 70 50
573 1 20 70 50
574 1 30 70 50
575 1 40 70 50
576 1 50 70 50
577 1 60 70 50
578 1 70 70 50
579 1 80 70 50
580 1 90 70 50
581 1 0 80 50
582 1 10 80 50
583 1 20 80 50
584 1 30 80 50
585 1 40 80 50
586 1 50 80 50
587 1 60 80 50
588 1 70 80 50
589 1 80 80 50
590 1 90 80 50
591 1 0 90 50
592 1 10 90 50
593 1 20 90 50
594 1 30 90 50
595 1 40 90 50
596 1 50 90 50
597 1 60 90 50
598 1 70 90 50
599 1 80 90 50
600 1 90 90 50
601 1 0 0 60
602 1 10 0 60
603 1 20 0 60
604 1 30 0 60
605 1 40 0 60
606 1 50 0 60
607 1 60 0 60
608 1 70 0 60
609 1 80 0 60
610 1 90 0 60
611 1 0 10 60
612 1 10 10 60
613 1 20 10 60
614 1 30 10 60
615 1 40 10 60
616 1 50 10 60
617 1 60 10 60
618 1 70 10 60
619 1 80 10 60
620 1 90 10 60
621 1 0 20 60
622 1 10 20 60
623 1 20 20 60
624 1 30 20 60
625 1 40 20 60
626 1 50 20 60
627 1 60 20 60
628 1 70 20 60
629 1 80 20 60
630 1 90 20 60
631 1 0 30 60
632 1 10 30 60
633 1 20 30 60
634 1 30 30 60
635 1 40 30 60
636 1 50 30 60
637 1 60 30 60
638 1 70 30 60
639 1 80 30 60
640 1 90 30 60
641 1 0 40 60
642 1 10 40 60
643 1 20 40 60
644 1 30 40 60
645 1 40 40 60
646 1 50 40 60
647 1 60 40 60
648 1 70 40 60
649 1 80 40 60
650 1 90 40 60
651 1 0 50 60
652 1 10 50 60
653 1 20 50 60
654 1 30 50 60
655 1 40 50 60
656 1 50 50 60
657 1 60 50 60
658 1 70 50 60
659 1 80 50 60
660 1 90 50 60
661 1 0 60 60
662 1 10 60 60
663 1 20 60 60
664 1 30 60 60
665 1 40 60 60
666 1 50 60 60
667 1 60 60 60
668 1 70 60 60
669 1 80 60 60
670 1 90 60 60
671 1 0 70 60
672 1 10 70 60
673 1 20 70 60
674 1 30 70 60
675 1 40 70 60
676 1 50 70 60
677 1 60 70 60
678 1 70 70 60
679 1 80 70 60
680 1 90 70 60
681 1 0 80 60
682 1 10 80 60
683 1 20 80 60
684 1 30 80 60
685 1 40 80 60
686 1 50 80 60
687 1 60 80 60
688 1 70 80 60
689 1 80 80 60
690 1 90 80 60
691 1 0 90 60
692 1 10 90 60
693 1 20 90 60
694 1 30 90 60
695 1 40 90 60
696 1 50 90 60
697 1 60 90 60
698 1 70 90 60
699 1 80 90 60
700 1 90 90 60
701 1 0 0 70
702 1 10 0 70
703 1 20 0 70
704 1 30 0 70
705 1 40 0 70
706 1 50 0 70
707 1 60 0 70
708 1 70 0 70
709 1 80 0 70
710 1 90 0 70
711 1 0 10 70
712 1 10 10 70
713 1 20 10 70
714 1 30 10 70
715 1 40 10 70
716 1 50 10 70
717 1 60 10 70
718 1 70 10 70
719 1 80 10 70
720 1 90 10 70
721 1 0 20 70
722 1 10 20 70
723 1 20 20 70
724 1 30 20 70
725 1 40 20 70
726 1 50 20 70
727 1 60 20 70
728 1 70 20 70
729 1 80 20 70
730 1 90 20 70
731 1 0 30 70
732 1 10 30 70
733 1 20 30 70
734 1 30 30 70
735 1 40 30 70
736 1 50 30 70
737 1 60 30 70
738 1 70 30 70
739 1 80 30 70
740 1 90 30 70
741 1 0 40 70
742 1 10 40 70
743 1 20 40 70
744 1 30 40 70
745 1 40 40 70
746 1 50 40 70
747 1 60 40 70
748 1 70 40 70
749 1 80 40 70
750 1 90 40 70
751 1 0 50 70
752 1 10 50 70
753 1 20 50 70
754 1 30 50 70
755 1 40 50 70
756 1 50 50 70
757 1 60 50 70
758 1 70 50 70
759 1 80 50 70
760 1 90 50 70
761 1 0 60 70
762 1 10 60 70
763 1 20 60 70
764 1 30 60 70
765 1 40 60 70
766 1 50 60 70
767 1 60 60 70
768 1 70 60 70
769 1 80 60 70
770 1 90 60 70
771 1 0 70 70
772 1 10 70 70
773 1 20 70 70
774 1 30 70 70
775 1 40 70 70
776 1 50 70 70
777 1 60 70 70
778 1 70 70 70
779 1 80 70 70
780 1 90 70 70
781 1 0 80 70
782 1 10 80 70
783 1 20 80 70
784 1 30 80 70
785 1 40 80 70
786 1 50 80 70
787 1 60 80 70
788 1 70 80 70
789 1 80 80 70
790 1 90 80 70
791 1 0 90 70
792 1 10 90 70
793 1 20 90 70
794 1 30 90 70
795 1 40 90 70
796 1 50 90 70
797 1 60 90 70
798 1 70 90 70
799 1 80 90 70
800 1 90 90 70
801 1 0 0 80
802 1 10 0 80
803 1 20 0 80
804 1 30 0 80
805 1 40 0 80
806 1 50 0 80
807 1 60 0 80
808 1 70 0 80
809 1 80 0 80
810 1 90 0 80
811 1 0 10 80
812 1 10 10 80
813 1 20 10 80
814 1 30 10 80
815 1 40 10 80
816 1 50 10 80
817 1 60 10 80
818 1 70 10 80
819 1 80 10 80
820 1 90 10 80
821 1 0 20 80
822 1 10 20 80
823 1 20 20 80
824 1 30 20 80
825 1 40 20 80
826 1 50 20 80
827 1 60 20 80
828 1 70 20 80
829 1 80 20 80
830 1 90 20 80
831 1 0 30 80
832 1 10 30 80
833 1 20 30 80
834 1 30 30 80
835 1 40 30 80
836 1 50 30 80
837 1 60 30 80
838 1 70 30 80
839 1 80 30 80
840 1 90 30 80
841 1 0 40 80
842 1 10 40 80
843 1 20 40 80
844 1 30 40 80
845 1 40 40 80
846 1 50 40 80
847 1 60 40 80
848 1 70 40 80
849 1 80 40 80
850 1 90 40 80
851 1 0 50 80
852 1 10 50 80
853 1 20 50 80
854 1 30 50 80
855 1 40 50 80
856 1 50 50 80
857 1 60 50 80
858 1 70 50 80
859 1 80 50 80
860 1 90 50 80
861 1 0 60 80
862 1 10 60 80
863 1 20 60 80
864 1 30 60 80
865 1 40 60 80
866 1 50 60 80
867 1 60 60 80
868 1 70 60 80
869 1 80 60 80
870 1 90 60 80
871 1 0 70 80
872 1 10 70 80
873 1 20 70 80
874 1 30 70 80
875 1 40 70 80
876 1 50 70 80
877 1 60 70 80
878 1 70 70 80
879 1 80 70 80
880 1 90 70 80
881 1 0 80 80
882 1 10 80 80
883 1 20 80 80
884 1 30 80 80
885 1 40 80 80
886 1 50 80 80
887 1 60 80 80
888 1 70 80 80
889 1 80 80 80
890 1 90 80 80
891 1 0 90 80
892 1 10 90 80
893 1 20 90 80
894 1 30 90 80
895 1 40 90 80
896 1 50 90 80
897 1 60 90 80
898 1 70 90 80
899 1 80 90 80
900 1 90 90 80
901 1 0 0 90
902 1 10 0 90
903 1 20 0 90
904 1 30 0 90
905 1 40 0 90
906 1 50 0 90
907 1 60 0 90
908 1 70 0 90
909 1 80 0 90
910 1 90 0 90
911 1 0 10 90
912 1 10 10 90
913 1 20 10 90
914 1 30 10 90
915 1 40 10 90
916 1 50 10 90
917 1 60 10 90
918 1 70 10 90
919 1 80 10 90
920 1 90 10 90
921 1 0 20 90
922 1 10 20 90
923 1 20 20 90
924 1 30 20 90
925 1 40 20 90
926 1 50 20 90
927 1 60 20 90
928 1 70 20 90
929 1 80 20 90
930 1 90 20 90
931 1 0 30 90
932 1 10 30 90
933 1 20 30 90
934 1 30 30 90
935 1 40 30 90
936 1 50 30 90
937 1 60 30 90
938 1 70 30 90
939 1 80 30 90
940 1 90 30 90
941 1 0 40 90
942 1 10 40 90
943 1 20 40 90
944 1 30 40 90
945 1 40 40 90
946 1 50 40 90
947 1 60 40 90
948 1 70 40 90
949 1 80 40 90
950 1 90 40 90
951 1 0 50 90
952 1 10 50 90
953 1 20 50 90
954 1 30 50 90
955 1 40 50 90
956 1 50 50 90
957 1 60 50 90
958 1 70 50 90
959 1 80 50 90
960 1 90 50 90
961 1 0 60 90
962 1 10 60 90
963 1 20 60 90
964 1 30 60 90
965 1 40 60 90
966 1 50 60 90
967 1 60 60 90
968 1 70 60 90
969 1 80 60 90
970 1 90 60 90
971 1 0 70 90
972 1 10 70 90
973 1 20 70 90
974 1 30 70 90
975 1 40 70 90
976 1 50 70 90
977 1 60 70 90
978 1 70 70 90
979 1 80 70 90
980 1 90 70 90
981 1 0 80 90
982 1 10 80 90
983 1 20 80 90
984 1 30 80 90
985 1 40 80 90
986 1 50 80 90
987 1 60 80 90
988 1 70 80 90
989 1 80 80 90
990 1 90 80 90
991 1 0 90 90
992 1 10 90 90
993 1 20 90 90
994 1 30 90 90
995 1 40 90 90
996 1 50 90 90
997 1 60 90 90
998 1 70 90 90
999 1 80 90 90
1000 1 90 90 90
ITEM: TIMESTEP
1
ITEM: NUMBER OF ATOMS
1000
ITEM: BOX BOUNDS pp pp pp
0.0000000000000000e+00 1.0000000000000000e+02
0.0000000000000000e+00 1.0000000000000000e+02
0.0000000000000000e+00 1.0000000000000000e+02
ITEM: ATOMS id type c_test2[1] c_test2[2] c_test2[3]
1 1 0.00235931 0.000853332 0.00399929
2 1 9.99937 -0.00162441 -0.00335873
3 1 20.0016 0.000681588 0.0042008
4 1 29.9967 0.00307907 -0.00244417
5 1 40.0031 0.000966566 5.72463e-06
6 1 50.0018 -0.0041857 -0.00184417
7 1 59.9968 0.00390757 0.00019473
8 1 69.9969 -0.00181461 -0.0012117
9 1 79.9989 0.00266832 0.00321047
10 1 89.9962 0.00304974 -0.00121057
11 1 0.000470501 10.0006 0.00139611
12 1 9.99907 9.99612 -0.000698167
13 1 19.9956 10.0012 -0.00156855
14 1 30.0001 10.0002 -0.00269741
15 1 40.0031 9.99581 -0.00180145
16 1 50.004 9.99906 0.000868362
17 1 59.9973 10.002 0.00281124
18 1 69.9961 9.99676 0.00199909
19 1 79.9995 9.99577 -0.0017608
20 1 90.0023 9.99902 -0.00163613
21 1 -0.000303256 19.9992 0.00360733
22 1 10.0001 20 -0.00208061
23 1 20.0019 19.9967 -0.00173891
24 1 29.9975 19.9986 0.00309422
25 1 40.0016 20.0003 -1.66685e-05
26 1 49.9982 19.9973 0.00386831
27 1 59.9998 20.0017 -0.00303988
28 1 70.0033 19.9965 -0.000667445
29 1 80.0005 20.0028 0.0035984
30 1 89.9973 19.9981 -0.000327135
31 1 -0.00125548 29.9978 0.00357347
32 1 10.003 30.0034 0.00354939
33 1 19.9971 30.0006 -0.00105926
34 1 30.0036 29.9993 -0.00279936
35 1 39.9973 29.9986 -0.00420641
36 1 49.9975 30.0022 0.00118835
37 1 60.0007 29.998 -5.06981e-06
38 1 70.0024 29.9977 0.00208847
39 1 80.0021 30.0038 -0.000387993
40 1 89.9988 30.0026 2.67139e-05
41 1 -0.000892557 40.0032 -0.00386082
42 1 9.99773 39.9997 0.00426575
43 1 19.996 39.9996 -0.00310812
44 1 30.0006 40.004 -0.00407605
45 1 40.0038 40.0001 -0.00190838
46 1 50.0011 40.0041 -0.00203241
47 1 59.9971 40.0039 0.00220656
48 1 70.0017 39.9994 0.00323858
49 1 80.0005 39.9982 -0.00247674
50 1 90.0018 40.0001 -0.000650815
51 1 0.00263224 50.0022 -0.00326966
52 1 9.99898 49.9968 -0.000606854
53 1 19.996 49.9994 0.000745446
54 1 30.0033 49.9966 2.88976e-05
55 1 40.0011 50.0016 -0.00376807
56 1 49.9963 50.0023 -0.00110546
57 1 59.9986 50.0025 -0.00429576
58 1 70.0041 50.0011 -0.00407562
59 1 80.0025 50.0016 0.00380914
60 1 90.0024 50.001 0.00159556
61 1 -0.0036772 59.9956 -0.000998894
62 1 10.0039 60.0028 0.00199569
63 1 20.003 59.9975 0.00115781
64 1 29.9988 60.0038 -0.00268657
65 1 40.0032 59.9971 0.00395927
66 1 50.0029 60.002 -0.00134195
67 1 60.0028 59.9957 -0.00293777
68 1 70.003 60.0001 0.00336967
69 1 80.0019 60.0027 -0.00255689
70 1 89.9983 60.0001 -0.000646175
71 1 0.00258715 69.9986 0.00247917
72 1 9.99764 69.9985 0.00354628
73 1 19.9968 70.0007 0.0032026
74 1 30.0027 70.0021 0.00106845
75 1 39.9967 69.9975 -0.00258576
76 1 49.9985 70.002 0.00304881
77 1 60.0013 69.9972 -0.00320759
78 1 70.002 70.0039 -0.00337543
79 1 79.9984 70.0023 0.00118388
80 1 90.0036 69.9973 0.00283564
81 1 -0.00134915 80.0011 -0.00402515
82 1 10.0011 79.9984 -0.00124048
83 1 20.0005 79.9978 0.00394022
84 1 30.0035 79.9978 -0.00139801
85 1 39.9968 80.0001 -0.00133862
86 1 49.9981 80.0019 0.00381274
87 1 60.0022 79.9958 -0.00424463
88 1 69.9965 79.9977 0.00148092
89 1 80.0027 80.0003 0.00185717
90 1 89.9981 80.0037 0.00124591
91 1 -0.0028646 89.9998 -0.00396984
92 1 10.0032 89.9973 -0.00130657
93 1 19.9993 89.9987 0.00117319
94 1 29.9973 89.9992 0.0033732
95 1 40.0006 89.9966 0.00175806
96 1 49.9968 89.9986 -0.00369568
97 1 59.9993 90.0012 0.000747782
98 1 69.9992 90.0009 0.00136576
99 1 80.0003 89.9977 -0.00387045
100 1 90.0006 89.9968 0.000353938
101 1 0.00276517 -0.000236108 10.0022
102 1 9.99579 0.000964703 10.0034
103 1 20.0002 -0.00105366 10.0016
104 1 29.9995 -0.000128718 10.004
105 1 40.0008 -0.000292824 10.0025
106 1 50.002 0.00266603 9.99932
107 1 60.0022 -0.00235461 9.99913
108 1 69.9987 -0.00321364 10.0036
109 1 79.9987 0.000984138 10.0006
110 1 89.9985 0.00268537 10.0036
111 1 0.00275254 10.0042 9.9997
112 1 10.0012 10.0039 10.0022
113 1 19.997 9.99915 9.99756
114 1 29.9997 9.99957 9.99588
115 1 40.0022 9.99761 9.99763
116 1 50.0003 10.0018 10.0032
117 1 59.9999 10.0015 10.0032
118 1 69.996 9.99589 9.99878
119 1 79.9973 9.99864 10.0014
120 1 89.9977 9.99996 9.99897
121 1 -0.00154839 19.9987 9.99743
122 1 10.0023 19.9987 9.997
123 1 19.996 19.9991 10.0038
124 1 29.9993 20.0003 9.99719
125 1 39.9959 20.0031 9.99756
126 1 50.0015 20.002 9.99863
127 1 60.0011 20.0003 10.0008
128 1 70.0018 20.002 10.002
129 1 79.9981 20.0006 10.0033
130 1 90.0018 19.9961 10.003
131 1 0.0027731 30.0031 10.0011
132 1 9.99941 30.003 9.99935
133 1 20.0007 30.0032 9.99621
134 1 30.0001 29.9993 9.99633
135 1 40.0015 30.002 10.0014
136 1 50.0036 30.001 10.0014
137 1 59.9973 29.9994 10
138 1 70.0037 29.9994 10.0016
139 1 79.9983 30.0019 10.003
140 1 90.0035 29.9999 10.0029
141 1 -0.00177496 39.9963 10.0043
142 1 9.9991 40.0039 10.0008
143 1 19.9966 39.9989 10.0006
144 1 29.9974 40.0024 9.9961
145 1 39.9962 40.0025 9.9975
146 1 49.9966 39.998 9.99829
147 1 60.0017 39.9989 9.99868
148 1 70.003 39.9979 10.0019
149 1 80.0033 40.0039 9.99994
150 1 90.0022 39.9993 10.0032
151 1 -0.00247346 50.0027 9.9965
152 1 9.99863 50.0027 10.0034
153 1 19.9988 50.0007 9.99955
154 1 29.9982 49.9982 9.99831
155 1 40 49.9998 10.0004
156 1 49.998 49.9969 9.9997
157 1 59.9994 50.0024 10.0018
158 1 69.9957 50.0026 9.99761
159 1 80 50.0031 10.0032
160 1 90.004 49.9972 9.99607
161 1 0.00163893 60.0037 9.99897
162 1 9.99812 60.0009 9.99878
163 1 19.9986 60.0039 9.99654
164 1 29.998 59.9994 10.0019
165 1 39.9961 60.0025 9.9982
166 1 49.999 59.9966 9.99963
167 1 59.9957 60.0036 9.9996
168 1 69.9986 59.9985 9.99659
169 1 79.996 59.9972 10.0029
170 1 90.0018 59.9994 9.99607
171 1 0.00347604 70.0018 9.997
172 1 10.0003 70.002 10.0016
173 1 20.0041 69.9964 10.0041
174 1 30.0031 69.9978 10.0011
175 1 39.9999 70.0009 9.99699
176 1 50.0025 69.9974 9.99722
177 1 60.0021 69.9957 9.99661
178 1 69.9959 69.9971 10.0005
179 1 79.9957 69.9975 9.99726
180 1 90.0021 70.0003 10.0029
181 1 -0.00331782 80.0023 9.99701
182 1 10.0011 79.998 9.99958
183 1 19.9971 79.999 9.99888
184 1 30.0011 80.0037 10.0022
185 1 39.996 79.9957 9.99934
186 1 49.9969 80.0026 9.99818
187 1 59.9964 79.997 9.9997
188 1 69.9978 79.9997 9.99726
189 1 80.0012 80.0041 10.0035
190 1 89.9971 80.0016 10.0027
191 1 0.00408858 89.9983 10.0022
192 1 9.99834 89.9978 10.0005
193 1 19.9962 90.0033 10.0034
194 1 30.0016 89.9999 9.99746
195 1 39.9969 89.998 10.0036
196 1 49.9967 90.0019 9.99679
197 1 60.003 90.0035 9.99631
198 1 70.0035 89.9986 9.99994
199 1 80.0036 89.9975 10.004
200 1 90.0021 90.001 9.99965
201 1 -0.00317141 0.00111205 20.0006
202 1 9.9965 0.00168613 20.0008
203 1 19.9974 -0.000634504 19.9986
204 1 29.9959 -0.000692567 20.0023
205 1 39.9963 -0.0038936 20.001
206 1 50.0002 0.00207723 20.0031
207 1 60.0007 -0.000405408 20.0001
208 1 70.003 0.00217107 20.0025
209 1 80.0022 0.000500626 19.9968
210 1 89.9958 -0.00438362 20.0004
211 1 -0.00234239 10.0038 19.9972
212 1 10.004 9.996 20.0018
213 1 20.0037 10.0022 20.0025
214 1 29.9971 10.0019 20.0008
215 1 39.9968 10.004 19.9966
216 1 50.0042 10.0023 19.9975
217 1 59.9979 10.0015 19.9974
218 1 70.002 10.0022 20.0015
219 1 80.0013 10.0013 20.0023
220 1 90.0042 9.99685 19.9977
221 1 -0.00131778 19.9997 20.0018
222 1 9.99846 19.9994 20.0024
223 1 20.0005 20.0033 20
224 1 30.0017 20.001 19.9975
225 1 40.0005 20.0038 20.0037
226 1 49.9994 20.0035 20.0042
227 1 60.0042 19.997 19.9981
228 1 70.0021 20.002 20.0039
229 1 80.0027 19.997 19.9992
230 1 89.9988 20.0008 20.0019
231 1 0.0036582 30.0034 20.003
232 1 9.99802 29.9993 19.9997
233 1 20.0004 30.0018 19.9989
234 1 29.9986 29.999 20.0042
235 1 40.0023 29.9987 20.0002
236 1 49.9962 30.0013 19.9967
237 1 59.9992 29.9968 20.0032
238 1 69.9964 29.9993 20.0036
239 1 80.004 29.9972 19.9982
240 1 90.0004 30.0034 19.9992
241 1 0.00248902 39.9963 19.9992
242 1 9.99867 40.0031 19.9983
243 1 19.9959 40.0011 19.9975
244 1 29.9986 39.9985 20.0024
245 1 39.9986 40.0001 19.9974
246 1 50.0024 39.9978 19.9974
247 1 60 39.9996 20.0027
248 1 70.0042 39.9997 20.0019
249 1 80.0006 39.9979 19.9977
250 1 89.9958 40.0002 19.9986
251 1 0.00190264 49.9974 19.9969
252 1 10.0002 49.9974 19.9968
253 1 19.9984 50.0021 20.0016
254 1 30.0013 49.9979 20.0017
255 1 39.9987 50.0036 20.0035
256 1 50.0009 49.9968 19.9965
257 1 60.0028 50.0037 20.0024
258 1 70.0035 50.0031 20.0023
259 1 79.9989 49.9998 20.0001
260 1 89.9968 49.9967 20.0029
261 1 0.000546451 60.0028 20.0011
262 1 10.0026 59.9958 20.0035
263 1 20.0013 60.0009 20.0033
264 1 29.997 59.9998 20.0014
265 1 40.0036 59.9962 20.0035
266 1 49.997 59.999 20.0004
267 1 59.9973 59.9966 20.0038
268 1 69.9963 59.9973 20.0031
269 1 80.0002 59.9995 20.0039
270 1 90.0032 59.9979 19.9964
271 1 0.000284245 69.9996 19.9981
272 1 10.0022 70.0018 19.9974
273 1 20.0008 70.0036 20.001
274 1 29.999 70.0035 19.9991
275 1 40.0016 69.9991 20
276 1 50.0009 70.0016 20.0011
277 1 60.001 70.002 19.9985
278 1 69.996 69.9966 19.997
279 1 79.9964 70.0022 20.0009
280 1 90.0035 70.0029 20.0031
281 1 0.0002095 80.0004 20.0025
282 1 9.99675 79.9993 19.9988
283 1 19.9987 80 20.003
284 1 29.9988 80.0004 20.0039
285 1 39.9991 79.9963 20.002
286 1 49.9979 80.0035 20.0013
287 1 59.9984 80.0006 20.0028
288 1 69.9984 79.9971 20.0013
289 1 79.9973 79.9982 20.004
290 1 90.003 79.9968 20.0014
291 1 0.00361219 90.0016 20.004
292 1 9.99582 89.9964 20.0042
293 1 20.0003 89.9977 20.0012
294 1 29.9965 90.0018 20.003
295 1 39.9966 90.0028 19.9966
296 1 50.0013 89.9972 20.0033
297 1 59.9989 89.9966 20.0014
298 1 69.9969 89.9973 19.9971
299 1 80.0037 89.9979 19.9972
300 1 89.9994 90.0021 19.9986
301 1 0.000556811 0.00355788 30.0004
302 1 10.0039 -0.00188516 30.0006
303 1 19.9961 -0.00215754 29.9999
304 1 30.0016 0.0016062 30.001
305 1 40.0041 0.000255674 29.9976
306 1 50.0034 0.000572239 30.0041
307 1 59.9988 -0.00214046 30.0009
308 1 70.0019 -0.000576225 29.9986
309 1 80.0026 -0.00239743 29.999
310 1 89.9965 -0.00165884 29.9989
311 1 0.00311126 9.99975 29.9995
312 1 10.0021 9.99571 29.9958
313 1 19.9975 9.99964 29.9974
314 1 29.9965 9.99577 30.0003
315 1 40 9.99878 29.9992
316 1 49.9968 10.0034 30.0027
317 1 60.0026 10.0039 30.0004
318 1 70.0014 10.0029 29.9987
319 1 80.0002 10.0035 30.0001
320 1 90.0013 10.0014 29.9964
321 1 -0.00334222 19.9998 29.9971
322 1 9.9998 19.9975 30.002
323 1 19.9972 20.0014 29.9973
324 1 30.0028 19.9992 29.9973
325 1 39.9963 19.9998 30.0017
326 1 50.0007 20.0012 29.9992
327 1 59.9992 20.003 29.9996
328 1 69.9992 20.0023 30.0013
329 1 80.0022 19.999 30.0034
330 1 90.0018 20.0042 29.9985
331 1 0.00203229 30.0007 29.9961
332 1 9.99976 29.9971 30.003
333 1 20.0015 30.0007 29.9982
334 1 29.9962 30.0039 30.0036
335 1 39.9997 29.9961 30.0042
336 1 50.0001 30.0015 30.0035
337 1 60.0032 29.9967 29.9994
338 1 70.0028 30.0006 30.0003
339 1 80.003 30.003 29.9993
340 1 89.9969 29.9985 30.0021
341 1 -0.00130513 40.0041 29.9963
342 1 9.99861 40.0037 30.0025
343 1 19.9996 39.9997 30.0009
344 1 30.0025 40.0017 29.9994
345 1 40.0016 39.9965 30.0002
346 1 49.9969 39.9991 30.003
347 1 60.0003 40.0017 29.9957
348 1 69.9987 39.9998 29.998
349 1 79.9999 39.9977 29.9978
350 1 89.9993 39.9991 29.9998
351 1 -0.00188261 49.9988 29.9978
352 1 9.997 49.9962 29.9961
353 1 19.9979 50.0003 29.996
354 1 30.0025 50.0006 29.9976
355 1 40.0036 50.0033 29.9999
356 1 49.9975 50.0025 29.9961
357 1 60.0014 49.9982 29.9961
358 1 69.9976 50.0017 29.9982
359 1 79.9992 49.9998 30.0003
360 1 89.996 50.0038 30.0042
361 1 -0.00385564 59.9961 29.9994
362 1 9.99827 60.0004 29.9994
363 1 20.0036 60.0023 30.0031
364 1 30.0036 59.9975 29.9981
365 1 39.997 60.0008 30.0003
366 1 49.9964 60.0041 29.999
367 1 60.0037 59.9989 29.999
368 1 70.0038 60.0023 30.0039
369 1 80.0037 59.9983 30.0003
370 1 89.9982 60.0012 30
371 1 0.00285782 69.9966 30.0005
372 1 10.0037 69.9993 29.9959
373 1 20.0041 69.9963 29.9965
374 1 29.9992 69.9961 29.9964
375 1 39.9993 69.9992 29.9971
376 1 49.9975 69.9966 30.0032
377 1 59.997 70.0008 30.0021
378 1 70.0007 70.0018 29.9964
379 1 80.0023 69.9998 30.0007
380 1 90.002 70.0002 30.0028
381 1 0.0036607 80.002 30.0041
382 1 9.99651 80.0004 29.9988
383 1 20.0019 79.999 29.9961
384 1 30.0013 79.996 30.0008
385 1 40.0009 80.0011 30.0016
386 1 49.9971 79.9974 30
387 1 59.9968 79.9988 29.9989
388 1 70.0004 79.9992 29.996
389 1 80.0017 80.0003 29.9966
390 1 90.0029 79.9962 30.0014
391 1 0.00300865 90.0004 29.9971
392 1 9.99633 90.0034 30.0014
393 1 20.0038 89.9969 29.9987
394 1 30.0014 89.9997 29.9967
395 1 40.0015 89.9974 30.0013
396 1 49.9988 89.9959 30.0017
397 1 60.0035 89.9983 29.9991
398 1 70.0007 89.9973 30.004
399 1 79.9983 89.996 30.0036
400 1 89.9965 90.003 30.0004
401 1 0.00200519 -0.00400214 39.9971
402 1 10.001 -0.00409932 40.0022
403 1 20.0006 4.90858e-06 39.996
404 1 30.0018 0.0017745 40.0037
405 1 39.9982 -0.00436223 39.9959
406 1 49.9984 0.00360035 40.0034
407 1 60.0021 -0.00123831 40.0016
408 1 70.0027 0.0013497 39.9984
409 1 80.0008 4.63248e-05 39.9986
410 1 90.0007 -0.00168223 39.9957
411 1 -0.00265567 10.0004 40.0005
412 1 9.99751 10.0035 40.0033
413 1 20.0004 10.0008 39.9987
414 1 30.0004 9.99757 40.0011
415 1 40.0032 9.99743 39.9992
416 1 50.0036 10.0029 39.9976
417 1 60.0004 9.99774 40.0017
418 1 69.9961 9.99918 40.0007
419 1 80.0001 10.0042 39.9969
420 1 90.0029 9.99839 39.9979
421 1 0.00222996 20.0028 39.9972
422 1 9.99935 19.9975 39.9966
423 1 19.998 20.0021 39.9989
424 1 29.9966 19.9987 39.9974
425 1 40.0032 20 40.0031
426 1 50.0007 20.0022 39.9972
427 1 59.9961 19.9979 40.0002
428 1 69.9984 20.0024 40.0027
429 1 80.0006 19.9982 40.0015
430 1 90.0009 19.9994 39.9997
431 1 -0.00313005 30.0028 40.0004
432 1 10.0036 30.0014 39.9961
433 1 20.0024 29.9968 40.0031
434 1 29.9959 29.9988 39.9972
435 1 39.9975 29.9997 39.9997
436 1 50.0038 29.9993 40.0038
437 1 59.9985 29.9979 40.0041
438 1 70.002 30.0036 40.0032
439 1 80.0014 29.9963 39.9985
440 1 89.9995 29.9975 39.9971
441 1 -0.00118797 39.9968 39.9964
442 1 9.9988 39.9991 39.9983
443 1 20.0022 39.9986 39.9962
444 1 30.0036 39.996 40.0024
445 1 39.9974 40.001 40.0008
446 1 50.0009 40.0011 39.9993
447 1 60.002 40.0002 40.0007
448 1 69.9957 40.0026 40.0017
449 1 80.0018 39.9984 40.0019
450 1 90.0009 40.0015 39.9989
451 1 0.000265312 50.0022 39.9998
452 1 10.0032 49.9989 39.9999
453 1 19.9965 50.0039 40.0023
454 1 30.0029 50.0038 40.0023
455 1 40.0019 50.0013 40.0011
456 1 50.0023 50.0035 40.0038
457 1 60.0031 49.9995 39.9981
458 1 69.9987 49.9997 39.9966
459 1 79.9986 49.998 39.9976
460 1 89.9998 50.0014 40.0013
461 1 0.00122199 60.0005 40.0041
462 1 10.0004 59.9962 40.0009
463 1 20.0043 60.0032 40.001
464 1 30 59.998 39.9962
465 1 39.9992 59.998 39.9984
466 1 49.9982 59.9973 39.9977
467 1 60.0025 59.9966 40.0023
468 1 69.9965 60.003 40.0006
469 1 79.9959 60.0011 40.0033
470 1 90.0002 60.0037 40.0005
471 1 -0.00183827 69.9984 40.003
472 1 9.99598 69.998 40.0015
473 1 20.0032 70.003 39.9998
474 1 29.9985 69.9996 39.9996
475 1 39.9995 70.0021 39.9994
476 1 49.9999 69.9964 40.0006
477 1 59.998 69.9985 39.9959
478 1 69.9978 69.9958 39.9961
479 1 80.0014 70.0028 39.9983
480 1 90.0019 70 40.0041
481 1 -0.00297899 80.0016 40.0037
482 1 10.0032 79.9995 40.0036