ITEM: TIMESTEP
0
ITEM: NUMBER OF ATOMS
200
ITEM: BOX BOUNDS pp pp pp
0.0000000000000000e+00 1.0000000000000000e+02
0.0000000000000000e+00 1.0000000000000000e+02
0.0000000000000000e+00 1.0000000000000000e+02
ITEM: ATOMS id type x y z fx fy fz
1 1     82.2600170421694     44.1064277403552     96.7310321502066   0.0732544224038935    0.186144910582598   -0.242780229996125
2 1     58.4573485229431     92.6566251053739     79.8981460183385   0.0789482731851442    0.073945095604642  -0.0394060118717228
3 1     48.1401302144584     91.1685144021961     69.2215577090259    0.328254766208494    0.100447207261837   -0.198412271334808
4 1     6.72041559904833     50.0249732053024     69.7246615168288  -0.0717048540752653    0.196338096004823   -0.459639462825793
5 1     62.3861133411462     23.4069246442089    0.182495219717964  -0.0534449466033649  -0.0118332713700114   0.0344220473748007
6 1     67.1971577998237     82.6311416377458     81.5975055944163    0.190508304756632    0.044964174040341    0.326476351935454
7 1     9.27652535460727     10.5616348844774      9.3975034120481    0.189858052410568    0.176429398830124    0.693547997023433
8 1     43.8398462924361     16.2966369727145     97.5776004128054   0.0200748353260032   -0.372430032046397    0.143369928129655
9 1     86.7301380199986     73.4297021168423     33.0034777675772   -0.231363416270533   0.0125732920088975    0.222349648762894
10 1     89.4508396691879    0.262320041778646     8.81294217371053  -0.0617703216338243  0.00913704870704126  -0.0233595395181094
11 1     19.1191135529052     34.9414836778033     61.5161728400347   0.0657405921344345    0.532923861642082    0.583374092457794
12 1     2.31692246269291     40.5158304798025     49.5628740403628  -0.0932930444729414  -0.0170440678633715     0.21388194819567
13 1     3.22399637812003     85.7071270633988     79.6845545431993   -0.480577638237817    0.415469092985769   -0.155114712890111
14 1     58.3082075502296     86.0442967089099     46.4947866492415    -18.2009274844108     61.6320189247865    -82.9923142401018
15 1     37.8792138015289     35.9463622960943     50.5111104578297    0.100757645284379   -0.141513871181609   0.0742398698767309
16 1     40.2334647440507     3.84195326075049     71.7084534334524    0.758782453134671  -0.0117934584885123    0.452029502361059
17 1     3.97685603423829      39.019367442941     98.5086135093628  -0.0536257601254742   0.0780121097106123   0.0144983025850215
18 1     34.2672518614061     29.7020346530257     2.09641340286304   -0.820022765566162     0.55576190047882   -0.627386732684322
19 1     34.4200619191025     97.9806743552818     61.1938892217325    0.241599479165796   0.0360731543696819 -0.00299638436174619
20 1     85.6961496573389     95.1872908953518     12.7980781778684   -0.151093173586298    -0.25986919752412    0.230383837351692
21 1     97.2999354346189     20.0148496404359     89.5779068067567    0.306395369833259   -0.249645894578368   -0.201027606875025
22 1     35.8797011598384     30.1373934047936     19.1709543667598    0.139443068636194  0.00965321962984253   0.0240627835426879
23 1     6.23004213265611     8.31812355123373     2.70252558528563     -5.0803293737895    0.692286858264303    -5.17823323183705
24 1     21.3475118956284     87.6324298268335     38.2480995907672  -0.0250534517636519   -0.034621823718572   -0.100335663074433
25 1      35.809822024689     55.6787689475709     93.0697018248354   -0.196234581792724    0.183941143500923    0.596515553117757
26 1      22.478570007942     97.3261234803713     60.1573345997172   -0.173193776412034  -0.0253551398076162     0.18836633744851
27 1     64.3226174471539     70.2314343164821     79.7165571151844    0.022955413765506   0.0778859130117547   0.0646112255629136
28 1     96.1754349042547     20.5344358089075     22.2626403077797   -0.312752860259892   -0.192572533963577    0.273517373640966
29 1     68.1956528537886      64.337513625779     20.5915084670258   -0.120341103765057   0.0930929223029708    0.118290379986287
30 1     81.4828053030571     81.5087284806691     17.1995746051891  -0.0428934949675604     0.14035226400829   -0.168930784343516
31 1     73.2503894126277     19.2948580343718      88.678983686808   0.0107765329884517   -0.122452547539661   -0.322377374162205
32 1     27.6788241824502     97.9980344409114     52.9648483977489   0.0997570110457839   0.0535084680102643   -0.204623005872788
33 1     80.2070209664325     39.4013828315779     19.0412503290182   -0.128981351225935   -0.142889666354388    0.406589531009505
34 1     26.2942798092469     27.9607540126707     36.3926909567754  -0.0516593294124282   -0.125433975557919    0.167402795658809
35 1     51.9569105244972      39.795185224989     37.6780763909584    0.119416680403824   0.0277798315414927   -0.036584795185366
36 1     55.4299028382776     10.3770029313755     6.28826762842399   0.0737077887659224     -0.2312438490323    0.373145112192424
37 1     86.9140309220711      64.117707248832     26.3057311187991  -0.0881001099737036  0.00258172017289619    0.068299105732005
38 1     20.4229136558356     47.9098136294213     20.2376696841035    0.100743420613757    0.169870638264493   0.0445932041630077
39 1     34.5143807281341     83.1968977503464     90.2604900720811     31.1250159304185     -54.798771003049    -18.0695221395758
40 1     8.05664146694198     7.97313489391149     4.47816197037611     4.88208808819302    -1.29149516756109     4.41051704303071
41 1     64.4682361113225     17.6443229977248     48.1366227605085  -0.0963539387902819  -0.0429093984173073    0.173705154794037
42 1     32.2187358663505    0.293705752256189     36.3125781697745    0.153444279169824   0.0170419373104278   -0.134643939766063
43 1     5.50129940058165     60.3390255758255     18.0028528990237  0.00975068082846592    0.096355654526105   0.0700399662065015
44 1      73.948673891811      55.362099667714     70.8091152695981  -0.0152279322110225   -0.149872017799016   -0.156964465801405
45 1      88.800336135924      67.249436474987     61.2788351072366   -0.240330628086309    0.096124290949291   -0.137739523970584
46 1     13.3816473248329     5.34658846694352     60.1123639196681   -0.236771515047307    0.085149420212103    0.048688725572433
47 1     8.50039786123689     66.1868538084379     2.45195841530895    -1.15894025795672     2.00845579950887   -0.257682773458166
48 1     10.0650860974868     63.9020404610327     1.59402857608815     1.59463690502728    -2.38455134215921   -0.150485588236348
49 1     90.8382783135578     18.9436159650533      85.353524650146   -0.256561566446391   -0.237331230611013   -0.481438618851158
50 1     36.6887950043607     28.5776382910915     4.36675837466808    0.959348998210432   -0.268853478693322    0.897671466389187
51 1     92.1080030464139     59.2072010781649     95.4285207183233    0.221953298323642  -0.0744363520848906    0.111611359632003
52 1     67.1477128598596     51.6100356595637     9.86933028785015   -0.179706059722779    0.076427420577026    0.624337823615676
53 1     73.8341478974718     30.5237128075788     12.0411569774342  -0.0840573279034836   -0.117173216767909    0.270503847492384
54 1     75.7253197374406      15.448827163991     48.4381451962693   0.0423909488819183   0.0281485613225904    0.254179631886759
55 1     99.9063136986952     25.4143339700132     38.7110340123582  -0.0992190961419564   -0.307537604067503  0.00140952639125118
56 1     16.3486457040294     71.6883476226071     66.0584931569446   -0.220146984842348   0.0502372988034874   -0.175716744332767
57 1     45.0944887684167     3.07273077921603     43.3862062838796    0.209268677262748    0.118522223105161   0.0426136465094148
58 1     91.9690131638055     23.2042440786978     93.7302306730907   -0.213051077092219   0.0743982977647654    0.132744236739366
59 1     23.9869226347594     48.2087224015075     43.9974021371442   -0.068118564105393    0.255548158258662    0.171264909683365
60 1     64.3377189824068     24.0429373104325     89.6473764393699   -0.152506629845092 -0.00653633294882666   -0.548107246082986
61 1     3.45581649032227     81.9077528463247      23.602088179254    0.311664195468456    0.115251193690914    0.167723429406231
62 1     80.2960287222155     35.3547342751896     7.01896311110769   0.0981741963806078   0.0153413231099737   0.0259340487192394
63 1     67.7130083868806     52.5319583027307     4.62319399445466  -0.0179665940025466    0.238909746215186   -0.487233393101737
64 1      2.0214647995408     74.7588858822169     72.5950224197447   -0.192058928908453    0.232954631029961   -0.144617997617063
65 1     4.54180864828723     34.1779517634669     28.8352885883466  -0.0809560521881709  -0.0725942827205192   -0.313885034854822
66 1     34.6953043410067     23.9800592996087     32.8566485237594    0.302251674557824   -0.269907648237588    0.159261990642497
67 1     21.6917388242165     73.0544186071746     25.6135307837341 -0.00126942075126509   0.0190735733118814  -0.0228074264167314
68 1     86.6118822184447     85.9044453994857     96.0138291567628   -0.212161319852758  -0.0282952761473021   0.0545285274934261
69 1     4.42663771306474     98.5000434790272     90.2307520109372    0.283385747740512   0.0801132476783908  -0.0606770263650704
70 1     8.24904782150362     41.7467360113499     37.3921427584217   0.0960950454581926    0.160886337658853  -0.0698275626881471
71 1     49.7433407929462     36.3287070469599     76.5793382546768   -0.302895999300068   -0.649193130125485   -0.410190193247992
72 1     68.9380463533746     41.7450611673971     9.24304044304557  -0.0641163039965606   -0.073406590419418    0.214613445401206
73 1     47.7807262669228     50.6663681709517     49.6498491846257    0.187547682629352   0.0364031156601376   0.0668217708867145
74 1      65.015246004339     11.2395949248409     3.87190180079634    0.105273240381663   -0.273761928138351    0.195308518688303
75 1     75.0535659841511     25.2834956279413     39.7110188099141   -0.012620114156727  -0.0198905591791546   0.0730681272030535
76 1      23.093138226817     26.3741781126588     70.8115394556949    0.144040298890077   -0.180660654786744  -0.0355189784604029
77 1     29.5436318635678     39.8207309841275      67.025650230714   0.0857638460768804  -0.0199113678205738  -0.0606897484980497
78 1    0.103427609476926      38.307832478689      39.740469325213   -0.265227187250535  -0.0573996912315229  -0.0192331876541911
79 1       18.06794885456     68.0163985900657     51.6111032346315    0.018195505034411   -0.065143934132097  -0.0942107864222853
80 1     27.8120644520093     37.3672449203987     31.2853771407555    0.059188070234557    0.211409697458655   0.0781555329511518
81 1       13.33360467727     97.8938108765957     1.27940294392379    0.178978113578421   -0.246246388655538   -0.243278420291586
82 1      2.9252785271617     65.1562060067226      80.354354987086   -0.194815278235759   0.0228203241694113   0.0815965461437617
83 1     15.6442679537666     33.2114989558288     85.6629506152416  -0.0255125925310763    -0.10894954754127  -0.0646587785876304
84 1     37.2109903661585      5.1150840265281     69.2172338577068   -0.374565073283919    0.554166416867787   -0.488470090173204
85 1     34.0494464775778     69.0469486494767     72.0659517553011   0.0922382579172443   0.0314219238109438  -0.0036591696696213
86 1     12.4511513451352     66.5006576881281     76.5537643695966   0.0637066668805529   0.0469491770788343  -0.0144644106469779
87 1     39.1177598103498     52.1891325489567     42.7507503157252  -0.0583362375127319   0.0968090730136675  -0.0885399340880074
88 1     11.8605563937968     40.3713105434418     20.6163036267349   -0.313268094796171  -0.0977572812604331    0.106978380725991
89 1     98.2150545335445    0.421545282202561     84.9115579784436  -0.0276061209325942    0.135532782870746   -0.380780505028346
90 1     8.55494370151076     82.9387912912941     52.2652327792091   -0.341440774437539    0.175535288649147    0.361478794264681
91 1     21.7673201680963     43.3500651937677     84.5457116535612   0.0998791291290761   0.0946694020200392  -0.0265402842857695
92 1      59.775761403039     51.2219008762491      86.488027119305    0.173123261733621   -0.116161023118376    -0.18431507332928
93 1     4.27179415909191     96.0444318577854     18.7662337994046  -0.0507093217233878   -0.128792142035861    0.066252135367334
94 1     4.09146659266738     65.2790229605879     44.5388986005163   -0.115166851244645   0.0962034476860816   0.0141718552098446
95 1     65.2687788779236     72.3666012624123     65.4674173637607   0.0838028032453022  -0.0236116238541255   -0.373380598647552
96 1     10.8836327264475     21.2152334028926     64.4278024157639   -0.182633697664389   -0.142997662932414   -0.100061775343171
97 1     38.0752017433174      29.915699935479     93.1688155947108   0.0921430967301455    0.120445196304946   -0.239327449294511
98 1      88.283700304238     84.1510133278328     26.0810008859639 0.000534587064789544    0.181282106793223  -0.0438762941924712
99 1     43.3818903953684     19.4318749566711     91.5223967710149   0.0435287142562286    -0.12157602344245   -0.445390174001209
100 1     16.9225304466311     16.9692165297313      1.6222151935204    0.146596851712682   -0.051109419973234  -0.0640490263911355
101 2     71.8024735207681     84.1724635493813     86.5948744521452   -0.190952363026372  -0.0807381809127641   -0.272880281503225
102 2   0.0549172051506663     22.9934669672481     51.1993185389784    0.163810620594106    0.227149028595355   -0.217020544234332
103 2     6.94668460960811     52.9282336835415     64.8235192824265   0.0530440054892797   -0.216004763611311    0.446616661039064
104 2     88.8885797415341     50.3597159638813     95.7462049535225  -0.0480010865404953   -0.107284034491911   0.0957942388745741
105 2     6.46665385294084     85.0513063767232     57.3062735876563    0.382369309083088   -0.184679023797341   -0.372107957955112
106 2     46.5401877400187    0.935346493933046     20.3685235326963  0.00921227045424708    0.227260639851388    -0.10488646000221
107 2     33.7750140269171     56.6607503949947     97.2318886766359    0.198300024448311   -0.198345411988333   -0.613506322976929
108 2      76.352988219053     64.6729976239954     59.0710664908733     2.84050440303189    -55.6811597186242    -3.89818480597175
109 2     7.41451210687613     15.7049802670744     53.6033487197027     0.27562135136992  -0.0329593715967956   0.0663642807193324
110 2      11.481932043788     76.8318599447756     13.0700918441033  -0.0106873725763883    -0.16454098047902   0.0506902238037657
111 2     69.0336238448665     48.1159606706891      84.950992271747   -0.132445128721256    0.232870562868782    0.315457466632713
112 2     71.3271112513389     94.7588012529345     11.1726580705366   0.0673090744204122   0.0260427340494194   0.0158376265997437
113 2     78.8641915092544     70.4666960381282     33.7603128206731     0.30570763840705 -0.00979526092083575    -0.21058609586858
114 2     9.57757705337255     70.3375360324688     62.9680977030509     0.30838720253688  -0.0251020222282317    0.203639635531135
115 2     4.81809517593034     77.7256218612779     34.5266224977219  -0.0133585009319529  -0.0861194102231883  0.00530837536233406
116 2     88.9443192113863     87.1729857694232     16.3718266954514   -0.123284479226661  -0.0797722155290784   0.0954584996846307
117 2     61.2912704522215      22.382490487016     82.5176152784925   0.0728730401368496    0.138071300089161    0.615263202148584
118 2       73.55998562349     22.6783739974156     55.4317745638228   -0.181254628780555   -0.107320434229466   -0.296835095819668
119 2     41.8350941696368     22.4277090851347     42.5065938581278   -0.171303977696207    0.342301076060174   -0.127462707985441
120 2     8.32297355324168     84.2165093329812     26.8723594149912   -0.222943484323782   -0.054526934422734    -0.19235311386803
121 2     43.7446877564046     16.9671218921277     66.4176409907721   -0.171429368316116    0.093036409459624    0.183015620152404
122 2      81.292131906977      76.860960562183     2.16416861031399    0.176881644317687   -0.251715981190939   0.0327718154348169
123 2      73.181833547159     67.0764271016589     53.5102975803941   -0.219450129733804   0.0625966302786363   -0.483558561971086
124 2     47.5714336836578     33.0859212358882     75.0782115734546    0.273009382576203    0.690990168554385    0.421183972469848
125 2     39.5019150523012     8.68628402645061     90.3756325553989   0.0822153233280521    0.273559346478367    0.126603043817251
126 2     43.2563585896307     9.61881592386347      63.439232373349   -0.369181345154069   -0.461711889013067     0.15041706076476
127 2     23.1784988768299     61.0306228795231     41.6787361454585  -0.0217308913957175   0.0539813346094833   0.0542647725728237
128 2     94.5183967214629     70.6936976270255     48.9760174178407    0.173444923627742   -0.130186290588149  -0.0679307771947179
129 2     39.9247416481025     15.1328796591297     38.3084309931418   -0.250107331996622  -0.0396484806325548    -0.23354810369113
130 2     49.7997017343527     83.5870492661311     47.5370158662726    -0.15710523285509 -0.00297659242935105   0.0340634928689202
131 2     54.6256644440003     93.5423103131085     65.6094324149235   -0.307953928705867   -0.198734505920115    0.290642784144941
132 2     97.7305976197732     58.1541955276179     97.5642326742244   -0.190175689013576  0.00516997952928373  -0.0980421343720832
133 2     62.0585556896676     18.1454762435264     71.0192249487244   0.0641777733845653    0.304488015558368  -0.0869629331528021
134 2     20.1137132105016     51.1779288999634      47.451021684078  0.00500039465979857    -0.25147229707068   -0.207171820949271
135 2     9.32144429968737     65.5143448456723     99.5938212143229   -0.468018790275127    0.567820376752146    0.385773713536987
136 2       73.35314912412     46.3773290842666     63.7699192686798   0.0317565117221888    0.137285483191513  0.00873293674854324
137 2     81.0331487008525     24.1302152276645     56.5273313580674     0.19408301255578   0.0562778704514612   -0.123036929779754
138 2     54.8581350384551    0.675591314526084      54.663223239902   -0.120407115194176  -0.0877756530257362  -0.0882397947905949
139 2     24.7929930336741     95.8339169602068     80.6423501952748    0.113966168265149    -0.04471961949814    -0.20159568226241
140 2     55.9797319844271     51.3554622658321     31.2543018400922  -0.0100037100159165   -0.077040300222819   0.0971777948130005
141 2     91.0510264295391     94.6012012635363     62.3896362550508    0.036634767763436   0.0297151413951204  -0.0322979272945557
142 2     82.6165386394675      36.164913529607     23.7016921042007     -0.1020156027414    0.217024503856584    -0.39948849060362
143 2     54.3391953009829     78.8554236194377     23.1047718893293   0.0993660131413839   -0.363599499086432   -0.167894028582844
144 2     21.9011439578147     92.5264989922412     92.8685625981859   -0.169828870950845   -0.073516580173419  -0.0222755853656561
145 2     41.9315877100134     44.1946421955687     79.3513809234609   -0.115148975779423   0.0108065548262723   0.0742788963003515
146 2     58.6591806070223     84.8484622244017     48.1046055201928     18.1960410424354    -61.6504863735769     83.0180838765754
147 2     94.1049778806535      22.363240142522     58.9770753676896    0.112891465703174   0.0951662359682797    0.101928187314254
148 2     27.7057047596694     49.7798957628104     50.7080855549816    0.112230210887927   -0.135540038612718  -0.0432381463401474
149 2     50.7939225764917     93.4567430957485     27.4812102445779   -0.042999976937825    0.157591557044018    0.123830918941009
150 2     76.7005806214645     6.65850495298324      9.4927447892226    0.100235517957789    0.178092018168825  -0.0941853802405789
151 2     44.5616724642747     48.0291070640223     25.2024250222381   -0.138455238068419   -0.192775351804911    0.279160105380043
152 2      77.157348756286     83.5605468990098     2.11173165687906   0.0148470200584249   0.0732070617376299   0.0364156151862137
153 2     91.8739571663895     25.5980955090365     27.1912203762639    0.140244578924576   0.0769274983053927   -0.128464514174113
154 2      2.8408638680544     46.3990303903814     28.5037711395434    0.107391161593511  -0.0776325849219985   0.0759660426976714
155 2     62.8815423058726     50.0815348001577     20.3553862498865     0.18839677583521  -0.0222470029627986   -0.288704429637056
156 2     12.9767018430758     99.4278765746522     84.3215901797272   -0.154262845017652   -0.011066534714609   0.0831052433871048
157 2     92.9661506754189     82.0944017647274     60.6104597731542   0.0953909673453669    -0.17060911417861   0.0229653271792654
158 2      79.997407402842     16.4262195659923     75.4722456333564    0.119762298896932   0.0508476910487488    0.273562508271438
159 2     62.0323598208057     77.8715082806868     86.4396735031342 -0.00332936872889384  -0.0683465958528509   -0.221645871283021
160 2     91.5925671772997     96.2765488756246     19.9569526221403   0.0522274923483876   0.0677372243565167   -0.151929827601271
161 2     16.5027203115182     61.2202756857594     29.1734505580615  -0.0533279678701658  -0.0539439115330443   -0.113238190655694
162 2     18.1835293388849     10.5775986381702      77.700311726751    0.013934851198464    0.182664374177265  -0.0516866365426545
163 2     9.13919150323569     2.39159488230552     95.5351869089227   -0.130886238723118    0.103157671489729    0.432576086937209
164 2     59.8863782640017     10.3594830773582     11.8320811594986   -0.111231853345906    0.221701524795303   -0.468348609449035
165 2     61.7880476926398     71.7175701967057     57.2022960321988   -0.122604372141061 -0.000771212953777933    0.248538733169117
166 2     98.9894131659481      15.067080089388      32.415062343895   0.0765593682366949   0.0584600933807404  -0.0328062818177859
167 2     99.9528138432432     6.94226338851371     78.6207707499251    0.147492060853801    0.167722192298598    0.701508873083955
168 2     79.2939939905396     94.1569989985586     96.6821687746244    0.167641650592959    0.104388542921279  -0.0158369149830787
169 2     37.2105951128577     98.4720617991276     19.9426579382004   -0.258345976269946   0.0753833460511886    0.008577034620692
170 2     76.2519673333745     66.8149720257218     59.2348363060666    -2.38867134364847     55.5062606420484     4.65292220467331
171 2     59.8937960620475     35.0304148323044     56.1820865404709   -0.112736299754911   0.0936230030718077   -0.112145562761576
172 2     52.3284856939355     84.8590579744703      26.187376923015  -0.0658579375094117  0.00779781926918796   0.0940700340194002
173 2     31.2439451139625       16.98553036758     75.8088879174594  -0.0933326627816061   0.0957088471201241   0.0593895030786875
174 2     19.9792287405484     90.8974423962168     13.3143532151889   -0.105319348501204   0.0889845640887748    0.037544300113547
175 2     74.3344876795702     39.7344305365041     16.5740270244768    0.236029813926896  -0.0711087119224784   -0.313316924056143
176 2     59.6722003816032     10.6718136047348     61.1712547769636    0.020383060719264  -0.0296752074588618   -0.101865093473345
177 2     5.27903642751232     24.7652371994989     29.3416119782914   0.0734064502165506    0.291391748924645   0.0133670921837611
178 2     44.4725191427732     49.6292325899141     18.5121386863813  -0.0921529429566752  -0.0336268720137768   -0.334449946068442
179 2     33.5149020112655     84.9581033387026     90.8428135751015    -31.0958231235259     54.7853494945894     18.0696564729584
180 2     95.1677567303031     84.4873662034456     79.1637813109736    0.146698296534613    -0.29953072435954    0.130592483949389
181 2     5.67249353307881      37.598810455575     23.2073268495534    0.279904269720472  -0.0526080015349903    0.098990581355453
182 2     45.5423604443401     30.4519880239163     6.56271796047814   -0.258816052978988   -0.110440050915622   -0.145827671862439
183 2      99.600761756115     90.0028350250809     77.6482665341572    0.466160282872033   -0.185471842534133    0.198525908192331
184 2      34.415639580421     23.6544281354427     59.9736723862466   -0.254095409846423    0.174101061338986  -0.0204464440056913
185 2     77.5117956462837     40.7494270898166     75.6210985479975    0.193545548681586   0.0376931452609655   -0.161706456521714
186 2     63.8032961933889     41.9991222871463     79.2482800685094   -0.244691766605349   0.0397521701527818    0.139588598499194
187 2     25.8431114376723     45.1739329589409     38.2912409204483  -0.0655897164250798   -0.124390440101811   0.0544068781511488
188 2     60.8861499749525     13.5226290270326     74.8260573366778  -0.0983333632859106   -0.341150727980623    0.436049707048165
189 2     1.54565754418525      77.866345121463      99.662456428475    0.037477247453799   -0.150292415230865  -0.0915409343643911
190 2      26.905193378639     95.5851147862082     99.0242118011341   0.0277348435028584    0.158527535535331    0.160297325361915
191 2     99.9277416616342      85.554107085594     7.87778757879408 -0.00213005210923625    0.135166319191959   0.0692723080491869
192 2     1.97583679201819     7.88896344969467     89.8086990182329  -0.0990613240327508   0.0941057884960418    0.266570401213327
193 2     14.8043994395083     17.5413798156853        17.9705622224  -0.0116826096980126   0.0295678801350274   -0.203798355343652
194 2     31.2392718769793     38.4424363907624     2.02841954400224  0.00683352458265383   -0.313757713983515  -0.0379163015696538
195 2     91.6472760455903     15.7684982362057     21.1498559085419    0.243745406921294    0.210615948373208   -0.176993504535498
196 2     65.6282548632604     14.0794868180898     33.9349516359786   0.0570123815253573    0.124254767153468  0.00471231122999848
197 2     44.7321458927971     13.1760202409588     49.3721897943747   -0.114423270831675   -0.125485202460337  -0.0690858338360975
198 2     98.3938740558894     5.84125733275025     74.0119915334564   -0.103493933185951  -0.0425931587813556   -0.371677397536355
199 2     19.5417028011483     37.3989788989532     64.6383547059439  -0.0182761860611983     -0.5514435397059   -0.568657827959085
200 2      76.827542798979     40.5118224399685     82.1997485506347    0.151524217779623  -0.0642018051467978    0.532207473124831
ITEM: TIMESTEP
1
ITEM: NUMBER OF ATOMS
200
ITEM: BOX BOUNDS pp pp pp
0.0000000000000000e+00 1.0000000000000000e+02
0.0000000000000000e+00 1.0000000000000000e+02
0.0000000000000000e+00 1.0000000000000000e+02
ITEM: ATOMS id type x y z fx fy fz
1 1     82.2763278030457     44.1125479100566     96.7552976198846    0.073952671491731    0.187035486054732   -0.242364635016617
2 1     58.4547549009862     92.6464865269955     79.8767172789464   0.0797932339982399   0.0740521275695154  -0.0399841014308542
3 1      48.153064337329     91.1731316937577     69.2473155074713    0.327541088602748   0.0997653319226432    -0.19924010500764
4 1      6.7001716883369     50.0452614164922     69.7070069850425  -0.0696514653188232    0.198806308796808    -0.46516856918457
5 1     62.4062528118113     23.4128080137319    0.182764962948289  -0.0540002639539426  -0.0118662733476476   0.0341700130353661
6 1     67.2102271628598     82.6046158188908     81.5874495701526    0.188535629111913   0.0470068196408052    0.325317052719947
7 1     9.25822742224186     10.5870826357356     9.40215190545228    0.185690958612658    0.178896390995258    0.693087675070598
8 1      43.821541811109     16.2831384597804     97.5706730912136   0.0186141130250694   -0.371689270100974    0.141652762140408
9 1     86.7227575120856      73.446498268419     33.0249833047318    -0.23069974909732   0.0117005749730397    0.221091189156955
10 1     89.4276237579359    0.281519115373635     8.80521765763916  -0.0626772104750193   0.0102798224615255  -0.0233425981236107
11 1     19.1234064738545     34.9479081864711      61.527910764581   0.0703862588072092     0.52907350907945    0.588259231577174
12 1      2.3115830181915     40.4909167087864     49.5595444359991  -0.0937444122424626   -0.018110647508994    0.214220370528632
13 1     3.19502943976265     85.7168347858276     79.6739235860962   -0.484948683878926    0.416961075528049   -0.155850845109715
14 1     58.2217562701201     86.3426576816618     46.0773660016097   0.0822416603876658   -0.687166477218214    0.896100707277838
15 1     37.9003308143631     35.9189237861052     50.5001085717555    0.100966487806265   -0.142087806984243   0.0749708160497163
16 1      40.263335970694     3.83572149235856     71.7162099348294    0.752384493452773 -0.00774409170765095    0.449593925035548
17 1      3.9602685111361     39.0320654143264     98.5265838492749  -0.0535003969090607   0.0780638142296487   0.0144574191850745
18 1      34.239436544632     29.6839914389767     2.10613525250995   -0.818260651743614    0.541598895172243   -0.610477106161852
19 1     34.4191517456895     97.9538373836515     61.1827725895953    0.241915081252905   0.0352330317624169 -0.00144119561060161
20 1     85.7113152484167     95.1796290968543     12.7888782203951    -0.14922914938365   -0.261138950204787    0.231191212809566
21 1     97.3004810391247     20.0086525795411     89.5998873602936    0.306829299847233   -0.251725385086223   -0.201610762761969
22 1     35.8818202634508     30.1372809175485       19.15793957059    0.139187680992218  0.00984980622267907   0.0239009033237563
23 1     6.21876360732601     8.30025659743745     2.66658109155951    -4.10313005169687    0.435097755945166    -4.29498475723539
24 1     21.3325758203484     87.6234320273119     38.2673109780313  -0.0254645250707842  -0.0348285555267922   -0.100518857871467